nqpoint: 255    
npath: 5      
segment_nqpoint:
- 51
- 51
- 51
- 51
- 51
reciprocal_lattice:
- [  -0.18369851,   0.18369851,   0.18369851 ] # a*
- [   0.18369851,  -0.18369851,   0.18369851 ] # b*
- [   0.18369851,   0.18369851,  -0.18369851 ] # c*
natom: 2      
lattice:
- [     0.000000000000000,     2.721851186469726,     2.721851186469726 ] # a
- [     2.721851186469726,     0.000000000000000,     2.721851186469726 ] # b
- [     2.721851186469727,     2.721851186469726,     0.000000000000000 ] # c
points:
- symbol: Si # 1
  coordinates: [  0.250000000000000,  0.250000000000000,  0.250000000000000 ]
  mass: 28.085500
- symbol: Si # 2
  coordinates: [  0.000000000000000,  0.000000000000000,  0.000000000000000 ]
  mass: 28.085500

phonon:
- q-position: [    0.0000000,    0.0000000,    0.0000000 ]
  distance:    0.0000000
  band:
  - # 1
    frequency:   -0.0015609489
  - # 2
    frequency:   -0.0015609489
  - # 3
    frequency:   -0.0015609489
  - # 4
    frequency:   17.7324700301
  - # 5
    frequency:   17.7324700301
  - # 6
    frequency:   17.7324700301

- q-position: [    0.0100000,    0.0000000,    0.0100000 ]
  distance:    0.0036740
  band:
  - # 1
    frequency:    0.1812453243
  - # 2
    frequency:    0.1812453243
  - # 3
    frequency:    0.2951263471
  - # 4
    frequency:   17.7305509768
  - # 5
    frequency:   17.7307380183
  - # 6
    frequency:   17.7307380183

- q-position: [    0.0200000,    0.0000000,    0.0200000 ]
  distance:    0.0073479
  band:
  - # 1
    frequency:    0.3624387248
  - # 2
    frequency:    0.3624387248
  - # 3
    frequency:    0.5901621875
  - # 4
    frequency:   17.7247936697
  - # 5
    frequency:   17.7255454160
  - # 6
    frequency:   17.7255454160

- q-position: [    0.0300000,    0.0000000,    0.0300000 ]
  distance:    0.0110219
  band:
  - # 1
    frequency:    0.5435054707
  - # 2
    frequency:    0.5435054707
  - # 3
    frequency:    0.8850033290
  - # 4
    frequency:   17.7151976689
  - # 5
    frequency:   17.7169025313
  - # 6
    frequency:   17.7169025313

- q-position: [    0.0400000,    0.0000000,    0.0400000 ]
  distance:    0.0146959
  band:
  - # 1
    frequency:    0.7243840272
  - # 2
    frequency:    0.7243840272
  - # 3
    frequency:    1.1795543263
  - # 4
    frequency:   17.7017622467
  - # 5
    frequency:   17.7048265735
  - # 6
    frequency:   17.7048265735

- q-position: [    0.0500000,    0.0000000,    0.0500000 ]
  distance:    0.0183699
  band:
  - # 1
    frequency:    0.9050103021
  - # 2
    frequency:    0.9050103021
  - # 3
    frequency:    1.4737191287
  - # 4
    frequency:   17.6844863948
  - # 5
    frequency:   17.6893416972
  - # 6
    frequency:   17.6893416972

- q-position: [    0.0600000,    0.0000000,    0.0600000 ]
  distance:    0.0220438
  band:
  - # 1
    frequency:    1.0853183557
  - # 2
    frequency:    1.0853183557
  - # 3
    frequency:    1.7674018417
  - # 4
    frequency:   17.6633688362
  - # 5
    frequency:   17.6704790651
  - # 6
    frequency:   17.6704790651

- q-position: [    0.0700000,    0.0000000,    0.0700000 ]
  distance:    0.0257178
  band:
  - # 1
    frequency:    1.2652401456
  - # 2
    frequency:    1.2652401456
  - # 3
    frequency:    2.0605068976
  - # 4
    frequency:   17.6384080384
  - # 5
    frequency:   17.6482769281
  - # 6
    frequency:   17.6482769281

- q-position: [    0.0800000,    0.0000000,    0.0800000 ]
  distance:    0.0293918
  band:
  - # 1
    frequency:    1.4447051448
  - # 2
    frequency:    1.4447051448
  - # 3
    frequency:    2.3529391520
  - # 4
    frequency:   17.6096022309
  - # 5
    frequency:   17.6227807255
  - # 6
    frequency:   17.6227807255

- q-position: [    0.0900000,    0.0000000,    0.0900000 ]
  distance:    0.0330657
  band:
  - # 1
    frequency:    1.6236399264
  - # 2
    frequency:    1.6236399264
  - # 3
    frequency:    2.6446039633
  - # 4
    frequency:   17.5769494253
  - # 5
    frequency:   17.5940432045
  - # 6
    frequency:   17.5940432045

- q-position: [    0.1000000,    0.0000000,    0.1000000 ]
  distance:    0.0367397
  band:
  - # 1
    frequency:    1.8019677301
  - # 2
    frequency:    1.8019677301
  - # 3
    frequency:    2.9354072668
  - # 4
    frequency:   17.5404474379
  - # 5
    frequency:   17.5621245598
  - # 6
    frequency:   17.5621245598

- q-position: [    0.1100000,    0.0000000,    0.1100000 ]
  distance:    0.0404137
  band:
  - # 1
    frequency:    1.9796080165
  - # 2
    frequency:    1.9796080165
  - # 3
    frequency:    3.2252556457
  - # 4
    frequency:   17.5000939157
  - # 5
    frequency:   17.5270925950
  - # 6
    frequency:   17.5270925950

- q-position: [    0.1200000,    0.0000000,    0.1200000 ]
  distance:    0.0440876
  band:
  - # 1
    frequency:    2.1564760086
  - # 2
    frequency:    2.1564760086
  - # 3
    frequency:    3.5140564006
  - # 4
    frequency:   17.4558863650
  - # 5
    frequency:   17.4890229053
  - # 6
    frequency:   17.4890229053

- q-position: [    0.1300000,    0.0000000,    0.1300000 ]
  distance:    0.0477616
  band:
  - # 1
    frequency:    2.3324822198
  - # 2
    frequency:    2.3324822198
  - # 3
    frequency:    3.8017176174
  - # 4
    frequency:   17.4078221827
  - # 5
    frequency:   17.4479990833
  - # 6
    frequency:   17.4479990833

- q-position: [    0.1400000,    0.0000000,    0.1400000 ]
  distance:    0.0514356
  band:
  - # 1
    frequency:    2.5075319679
  - # 2
    frequency:    2.5075319679
  - # 3
    frequency:    4.0881482344
  - # 4
    frequency:   17.3558986897
  - # 5
    frequency:   17.4041129483
  - # 6
    frequency:   17.4041129483

- q-position: [    0.1500000,    0.0000000,    0.1500000 ]
  distance:    0.0551096
  band:
  - # 1
    frequency:    2.6815248749
  - # 2
    frequency:    2.6815248749
  - # 3
    frequency:    4.3732581072
  - # 4
    frequency:   17.3001131676
  - # 5
    frequency:   17.3574647995
  - # 6
    frequency:   17.3574647995

- q-position: [    0.1600000,    0.0000000,    0.1600000 ]
  distance:    0.0587835
  band:
  - # 1
    frequency:    2.8543543502
  - # 2
    frequency:    2.8543543502
  - # 3
    frequency:    4.6569580727
  - # 4
    frequency:   17.2404628972
  - # 5
    frequency:   17.3081636937
  - # 6
    frequency:   17.3081636937

- q-position: [    0.1700000,    0.0000000,    0.1700000 ]
  distance:    0.0624575
  band:
  - # 1
    frequency:    3.0259070591
  - # 2
    frequency:    3.0259070591
  - # 3
    frequency:    4.9391600114
  - # 4
    frequency:   17.1769451993
  - # 5
    frequency:   17.2563277482
  - # 6
    frequency:   17.2563277482

- q-position: [    0.1800000,    0.0000000,    0.1800000 ]
  distance:    0.0661315
  band:
  - # 1
    frequency:    3.1960623749
  - # 2
    frequency:    3.1960623749
  - # 3
    frequency:    5.2197769084
  - # 4
    frequency:   17.1095574779
  - # 5
    frequency:   17.2020844678
  - # 6
    frequency:   17.2020844678

- q-position: [    0.1900000,    0.0000000,    0.1900000 ]
  distance:    0.0698054
  band:
  - # 1
    frequency:    3.3646918158
  - # 2
    frequency:    3.3646918158
  - # 3
    frequency:    5.4987229120
  - # 4
    frequency:   17.0382972649
  - # 5
    frequency:   17.1455710950
  - # 6
    frequency:   17.1455710950

- q-position: [    0.2000000,    0.0000000,    0.2000000 ]
  distance:    0.0734794
  band:
  - # 1
    frequency:    3.5316584686
  - # 2
    frequency:    3.5316584686
  - # 3
    frequency:    5.7759133913
  - # 4
    frequency:   16.9631622672
  - # 5
    frequency:   17.0869349834
  - # 6
    frequency:   17.0869349834

- q-position: [    0.2100000,    0.0000000,    0.2100000 ]
  distance:    0.0771534
  band:
  - # 1
    frequency:    3.6968164005
  - # 2
    frequency:    3.6968164005
  - # 3
    frequency:    6.0512649918
  - # 4
    frequency:   16.8841504152
  - # 5
    frequency:   17.0263339895
  - # 6
    frequency:   17.0263339895

- q-position: [    0.2200000,    0.0000000,    0.2200000 ]
  distance:    0.0808273
  band:
  - # 1
    frequency:    3.8600100631
  - # 2
    frequency:    3.8600100631
  - # 3
    frequency:    6.3246956883
  - # 4
    frequency:   16.8012599128
  - # 5
    frequency:   16.9639368811
  - # 6
    frequency:   16.9639368811

- q-position: [    0.2300000,    0.0000000,    0.2300000 ]
  distance:    0.0845013
  band:
  - # 1
    frequency:    4.0210736946
  - # 2
    frequency:    4.0210736946
  - # 3
    frequency:    6.5961248370
  - # 4
    frequency:   16.7144892893
  - # 5
    frequency:   16.8999237556
  - # 6
    frequency:   16.8999237556

- q-position: [    0.2400000,    0.0000000,    0.2400000 ]
  distance:    0.0881753
  band:
  - # 1
    frequency:    4.1798307256
  - # 2
    frequency:    4.1798307256
  - # 3
    frequency:    6.8654732244
  - # 4
    frequency:   16.6238374516
  - # 5
    frequency:   16.8344864617
  - # 6
    frequency:   16.8344864617

- q-position: [    0.2500000,    0.0000000,    0.2500000 ]
  distance:    0.0918493
  band:
  - # 1
    frequency:    4.3360932000
  - # 2
    frequency:    4.3360932000
  - # 3
    frequency:    7.1326631147
  - # 4
    frequency:   16.5293037389
  - # 5
    frequency:   16.7678290146
  - # 6
    frequency:   16.7678290146

- q-position: [    0.2600000,    0.0000000,    0.2600000 ]
  distance:    0.0955232
  band:
  - # 1
    frequency:    4.4896612217
  - # 2
    frequency:    4.4896612217
  - # 3
    frequency:    7.3976182944
  - # 4
    frequency:   16.4308879771
  - # 5
    frequency:   16.7001679916
  - # 6
    frequency:   16.7001679916

- q-position: [    0.2700000,    0.0000000,    0.2700000 ]
  distance:    0.0991972
  band:
  - # 1
    frequency:    4.6403224448
  - # 2
    frequency:    4.6403224448
  - # 3
    frequency:    7.6602641155
  - # 4
    frequency:   16.3285905345
  - # 5
    frequency:   16.6317328932
  - # 6
    frequency:   16.6317328932

- q-position: [    0.2800000,    0.0000000,    0.2800000 ]
  distance:    0.1028712
  band:
  - # 1
    frequency:    4.7878516254
  - # 2
    frequency:    4.7878516254
  - # 3
    frequency:    7.9205275348
  - # 4
    frequency:   16.2224123784
  - # 5
    frequency:   16.5627664485
  - # 6
    frequency:   16.5627664485

- q-position: [    0.2900000,    0.0000000,    0.2900000 ]
  distance:    0.1065451
  band:
  - # 1
    frequency:    4.9320102605
  - # 2
    frequency:    4.9320102605
  - # 3
    frequency:    8.1783371526
  - # 4
    frequency:   16.1123551317
  - # 5
    frequency:   16.4935248410
  - # 6
    frequency:   16.4935248410

- q-position: [    0.3000000,    0.0000000,    0.3000000 ]
  distance:    0.1102191
  band:
  - # 1
    frequency:    5.0725463438
  - # 2
    frequency:    5.0725463438
  - # 3
    frequency:    8.4336232470
  - # 4
    frequency:   15.9984211302
  - # 5
    frequency:   16.4242778246
  - # 6
    frequency:   16.4242778246

- q-position: [    0.3100000,    0.0000000,    0.3100000 ]
  distance:    0.1138931
  band:
  - # 1
    frequency:    5.2091942726
  - # 2
    frequency:    5.2091942726
  - # 3
    frequency:    8.6863178072
  - # 4
    frequency:   15.8806134799
  - # 5
    frequency:   16.3553086957
  - # 6
    frequency:   16.3553086957

- q-position: [    0.3200000,    0.0000000,    0.3200000 ]
  distance:    0.1175670
  band:
  - # 1
    frequency:    5.3416749475
  - # 2
    frequency:    5.3416749475
  - # 3
    frequency:    8.9363545630
  - # 4
    frequency:   15.7589361140
  - # 5
    frequency:   16.2869140783
  - # 6
    frequency:   16.2869140783

- q-position: [    0.3300000,    0.0000000,    0.3300000 ]
  distance:    0.1212410
  band:
  - # 1
    frequency:    5.4696961105
  - # 2
    frequency:    5.4696961105
  - # 3
    frequency:    9.1836690126
  - # 4
    frequency:   15.6333938505
  - # 5
    frequency:   16.2194034782
  - # 6
    frequency:   16.2194034782

- q-position: [    0.3400000,    0.0000000,    0.3400000 ]
  distance:    0.1249150
  band:
  - # 1
    frequency:    5.5929529747
  - # 2
    frequency:    5.5929529747
  - # 3
    frequency:    9.4281984468
  - # 4
    frequency:   15.5039924488
  - # 5
    frequency:   16.1530985517
  - # 6
    frequency:   16.1530985517

- q-position: [    0.3500000,    0.0000000,    0.3500000 ]
  distance:    0.1285890
  band:
  - # 1
    frequency:    5.7111291980
  - # 2
    frequency:    5.7111291980
  - # 3
    frequency:    9.6698819711
  - # 4
    frequency:   15.3707386659
  - # 5
    frequency:   16.0883320365
  - # 6
    frequency:   16.0883320365

- q-position: [    0.3600000,    0.0000000,    0.3600000 ]
  distance:    0.1322629
  band:
  - # 1
    frequency:    5.8238982612
  - # 2
    frequency:    5.8238982612
  - # 3
    frequency:    9.9086605247
  - # 4
    frequency:   15.2336403125
  - # 5
    frequency:   16.0254462849
  - # 6
    frequency:   16.0254462849

- q-position: [    0.3700000,    0.0000000,    0.3700000 ]
  distance:    0.1359369
  band:
  - # 1
    frequency:    5.9309253027
  - # 2
    frequency:    5.9309253027
  - # 3
    frequency:   10.1444768966
  - # 4
    frequency:   15.0927063077
  - # 5
    frequency:   15.9647913459
  - # 6
    frequency:   15.9647913459

- q-position: [    0.3800000,    0.0000000,    0.3800000 ]
  distance:    0.1396109
  band:
  - # 1
    frequency:    6.0318694624
  - # 2
    frequency:    6.0318694624
  - # 3
    frequency:   10.3772757392
  - # 4
    frequency:   14.9479467333
  - # 5
    frequency:   15.9067225447
  - # 6
    frequency:   15.9067225447

- q-position: [    0.3900000,    0.0000000,    0.3900000 ]
  distance:    0.1432848
  band:
  - # 1
    frequency:    6.1263867719
  - # 2
    frequency:    6.1263867719
  - # 3
    frequency:   10.6070035788
  - # 4
    frequency:   14.7993728864
  - # 5
    frequency:   15.8515975213
  - # 6
    frequency:   15.8515975213

- q-position: [    0.4000000,    0.0000000,    0.4000000 ]
  distance:    0.1469588
  band:
  - # 1
    frequency:    6.2141336125
  - # 2
    frequency:    6.2141336125
  - # 3
    frequency:   10.8336088233
  - # 4
    frequency:   14.6469973316
  - # 5
    frequency:   15.7997727073
  - # 6
    frequency:   15.7997727073

- q-position: [    0.4100000,    0.0000000,    0.4100000 ]
  distance:    0.1506328
  band:
  - # 1
    frequency:    6.2947707381
  - # 2
    frequency:    6.2947707381
  - # 3
    frequency:   11.0570417668
  - # 4
    frequency:   14.4908339514
  - # 5
    frequency:   15.7515992433
  - # 6
    frequency:   15.7515992433

- q-position: [    0.4200000,    0.0000000,    0.4200000 ]
  distance:    0.1543067
  band:
  - # 1
    frequency:    6.3679678275
  - # 2
    frequency:    6.3679678275
  - # 3
    frequency:   11.2772545915
  - # 4
    frequency:   14.3308979951
  - # 5
    frequency:   15.7074183728
  - # 6
    frequency:   15.7074183728

- q-position: [    0.4300000,    0.0000000,    0.4300000 ]
  distance:    0.1579807
  band:
  - # 1
    frequency:    6.4334084918
  - # 2
    frequency:    6.4334084918
  - # 3
    frequency:   11.4942013669
  - # 4
    frequency:   14.1672061260
  - # 5
    frequency:   15.6675563858
  - # 6
    frequency:   15.6675563858

- q-position: [    0.4400000,    0.0000000,    0.4400000 ]
  distance:    0.1616547
  band:
  - # 1
    frequency:    6.4907956226
  - # 2
    frequency:    6.4907956226
  - # 3
    frequency:   11.7078380461
  - # 4
    frequency:   13.9997764678
  - # 5
    frequency:   15.6323192276
  - # 6
    frequency:   15.6323192276

- q-position: [    0.4500000,    0.0000000,    0.4500000 ]
  distance:    0.1653287
  band:
  - # 1
    frequency:    6.5398569194
  - # 2
    frequency:    6.5398569194
  - # 3
    frequency:   11.9181224583
  - # 4
    frequency:   13.8286286478
  - # 5
    frequency:   15.6019869334
  - # 6
    frequency:   15.6019869334

- q-position: [    0.4600000,    0.0000000,    0.4600000 ]
  distance:    0.1690026
  band:
  - # 1
    frequency:    6.5803503987
  - # 2
    frequency:    6.5803503987
  - # 3
    frequency:   12.1250143000
  - # 4
    frequency:   13.6537838393
  - # 5
    frequency:   15.5768080865
  - # 6
    frequency:   15.5768080865

- q-position: [    0.4700000,    0.0000000,    0.4700000 ]
  distance:    0.1726766
  band:
  - # 1
    frequency:    6.6120696535
  - # 2
    frequency:    6.6120696535
  - # 3
    frequency:   12.3284751225
  - # 4
    frequency:   13.4752648014
  - # 5
    frequency:   15.5569945313
  - # 6
    frequency:   15.5569945313

- q-position: [    0.4800000,    0.0000000,    0.4800000 ]
  distance:    0.1763506
  band:
  - # 1
    frequency:    6.6348486145
  - # 2
    frequency:    6.6348486145
  - # 3
    frequency:   12.5284683162
  - # 4
    frequency:   13.2930959166
  - # 5
    frequency:   15.5427165892
  - # 6
    frequency:   15.5427165892

- q-position: [    0.4900000,    0.0000000,    0.4900000 ]
  distance:    0.1800245
  band:
  - # 1
    frequency:    6.6485655695
  - # 2
    frequency:    6.6485655695
  - # 3
    frequency:   12.7249590932
  - # 4
    frequency:   13.1073032270
  - # 5
    frequency:   15.5340990222
  - # 6
    frequency:   15.5340990222

- q-position: [    0.5000000,    0.0000000,    0.5000000 ]
  distance:    0.1836985
  band:
  - # 1
    frequency:    6.6531462158
  - # 2
    frequency:    6.6531462158
  - # 3
    frequency:   12.9179144666
  - # 4
    frequency:   12.9179144666
  - # 5
    frequency:   15.5312179677
  - # 6
    frequency:   15.5312179677

- q-position: [    0.5000000,    0.0000000,    0.5000000 ]
  distance:    0.1836985
  band:
  - # 1
    frequency:    6.6531462158
  - # 2
    frequency:    6.6531462158
  - # 3
    frequency:   12.9179144666
  - # 4
    frequency:   12.9179144666
  - # 5
    frequency:   15.5312179677
  - # 6
    frequency:   15.5312179677

- q-position: [    0.5025000,    0.0050000,    0.5025000 ]
  distance:    0.1849975
  band:
  - # 1
    frequency:    6.6529410106
  - # 2
    frequency:    6.6540140137
  - # 3
    frequency:   12.9172837227
  - # 4
    frequency:   12.9176680459
  - # 5
    frequency:   15.5313633680
  - # 6
    frequency:   15.5315182635

- q-position: [    0.5050000,    0.0100000,    0.5050000 ]
  distance:    0.1862964
  band:
  - # 1
    frequency:    6.6523254076
  - # 2
    frequency:    6.6566155042
  - # 3
    frequency:   12.9153927787
  - # 4
    frequency:   12.9169293711
  - # 5
    frequency:   15.5317995247
  - # 6
    frequency:   15.5324179754

- q-position: [    0.5075000,    0.0150000,    0.5075000 ]
  distance:    0.1875953
  band:
  - # 1
    frequency:    6.6512994448
  - # 2
    frequency:    6.6609449836
  - # 3
    frequency:   12.9122454839
  - # 4
    frequency:   12.9157002055
  - # 5
    frequency:   15.5325263057
  - # 6
    frequency:   15.5339135905

- q-position: [    0.5100000,    0.0200000,    0.5100000 ]
  distance:    0.1888943
  band:
  - # 1
    frequency:    6.6498631856
  - # 2
    frequency:    6.6669929626
  - # 3
    frequency:   12.9078482074
  - # 4
    frequency:   12.9139834931
  - # 5
    frequency:   15.5335434910
  - # 6
    frequency:   15.5359992995

- q-position: [    0.5125000,    0.0250000,    0.5125000 ]
  distance:    0.1901932
  band:
  - # 1
    frequency:    6.6480167184
  - # 2
    frequency:    6.6747461921
  - # 3
    frequency:   12.9022097698
  - # 4
    frequency:   12.9117833656
  - # 5
    frequency:   15.5348507726
  - # 6
    frequency:   15.5386670648

- q-position: [    0.5150000,    0.0300000,    0.5150000 ]
  distance:    0.1914922
  band:
  - # 1
    frequency:    6.6457601573
  - # 2
    frequency:    6.6841876982
  - # 3
    frequency:   12.8953413502
  - # 4
    frequency:   12.9091051528
  - # 5
    frequency:   15.5364477548
  - # 6
    frequency:   15.5419067117

- q-position: [    0.5175000,    0.0350000,    0.5175000 ]
  distance:    0.1927911
  band:
  - # 1
    frequency:    6.6430936416
  - # 2
    frequency:    6.6952968267
  - # 3
    frequency:   12.8872563703
  - # 4
    frequency:   12.9059553958
  - # 5
    frequency:   15.5383339543
  - # 6
    frequency:   15.5457060434

- q-position: [    0.5200000,    0.0400000,    0.5200000 ]
  distance:    0.1940901
  band:
  - # 1
    frequency:    6.6400173356
  - # 2
    frequency:    6.7080492959
  - # 3
    frequency:   12.8779703586
  - # 4
    frequency:   12.9023418634
  - # 5
    frequency:   15.5405088005
  - # 6
    frequency:   15.5500509743

- q-position: [    0.5225000,    0.0450000,    0.5225000 ]
  distance:    0.1953890
  band:
  - # 1
    frequency:    6.6365314293
  - # 2
    frequency:    6.7224172569
  - # 3
    frequency:   12.8675007981
  - # 4
    frequency:   12.8982735706
  - # 5
    frequency:   15.5429716358
  - # 6
    frequency:   15.5549256810

- q-position: [    0.5250000,    0.0500000,    0.5250000 ]
  distance:    0.1966880
  band:
  - # 1
    frequency:    6.6326361378
  - # 2
    frequency:    6.7383693617
  - # 3
    frequency:   12.8558669602
  - # 4
    frequency:   12.8937608013
  - # 5
    frequency:   15.5457217158
  - # 6
    frequency:   15.5603127650

- q-position: [    0.5275000,    0.0550000,    0.5275000 ]
  distance:    0.1979869
  band:
  - # 1
    frequency:    6.6283317013
  - # 2
    frequency:    6.7558708361
  - # 3
    frequency:   12.8430897291
  - # 4
    frequency:   12.8888151329
  - # 5
    frequency:   15.5487582099
  - # 6
    frequency:   15.5661934265

- q-position: [    0.5300000,    0.0600000,    0.5300000 ]
  distance:    0.1992858
  band:
  - # 1
    frequency:    6.6236183855
  - # 2
    frequency:    6.7748835585
  - # 3
    frequency:   12.8291914186
  - # 4
    frequency:   12.8834494643
  - # 5
    frequency:   15.5520802013
  - # 6
    frequency:   15.5725476437

- q-position: [    0.5325000,    0.0650000,    0.5325000 ]
  distance:    0.2005848
  band:
  - # 1
    frequency:    6.6184964812
  - # 2
    frequency:    6.7953661422
  - # 3
    frequency:   12.8141955868
  - # 4
    frequency:   12.8776780461
  - # 5
    frequency:   15.5556866878
  - # 6
    frequency:   15.5793543551

- q-position: [    0.5350000,    0.0700000,    0.5350000 ]
  distance:    0.2018837
  band:
  - # 1
    frequency:    6.6129663045
  - # 2
    frequency:    6.8172740208
  - # 3
    frequency:   12.7981268497
  - # 4
    frequency:   12.8715165148
  - # 5
    frequency:   15.5595765821
  - # 6
    frequency:   15.5865916423

- q-position: [    0.5375000,    0.0750000,    0.5375000 ]
  distance:    0.2031827
  band:
  - # 1
    frequency:    6.6070281965
  - # 2
    frequency:    6.8405595357
  - # 3
    frequency:   12.7810106972
  - # 4
    frequency:   12.8649819285
  - # 5
    frequency:   15.5637487123
  - # 6
    frequency:   15.5942369090

- q-position: [    0.5400000,    0.0800000,    0.5400000 ]
  distance:    0.2044816
  band:
  - # 1
    frequency:    6.6006825237
  - # 2
    frequency:    6.8651720239
  - # 3
    frequency:   12.7628733150
  - # 4
    frequency:   12.8580928060
  - # 5
    frequency:   15.5682018227
  - # 6
    frequency:   15.6022670564

- q-position: [    0.5425000,    0.0850000,    0.5425000 ]
  distance:    0.2057806
  band:
  - # 1
    frequency:    6.5939296776
  - # 2
    frequency:    6.8910579065
  - # 3
    frequency:   12.7437414122
  - # 4
    frequency:   12.8508691679
  - # 5
    frequency:   15.5729345739
  - # 6
    frequency:   15.6106586494

- q-position: [    0.5450000,    0.0900000,    0.5450000 ]
  distance:    0.2070795
  band:
  - # 1
    frequency:    6.5867700748
  - # 2
    frequency:    6.9181607757
  - # 3
    frequency:   12.7236420589
  - # 4
    frequency:   12.8433325802
  - # 5
    frequency:   15.5779455441
  - # 6
    frequency:   15.6193880748

- q-position: [    0.5475000,    0.0950000,    0.5475000 ]
  distance:    0.2083785
  band:
  - # 1
    frequency:    6.5792041572
  - # 2
    frequency:    6.9464214808
  - # 3
    frequency:   12.7026025327
  - # 4
    frequency:   12.8355062002
  - # 5
    frequency:   15.5832332290
  - # 6
    frequency:   15.6284316897

- q-position: [    0.5500000,    0.1000000,    0.5500000 ]
  distance:    0.2096774
  band:
  - # 1
    frequency:    6.5712323915
  - # 2
    frequency:    6.9757782110
  - # 3
    frequency:   12.6806501764
  - # 4
    frequency:   12.8274148241
  - # 5
    frequency:   15.5887960433
  - # 6
    frequency:   15.6377659575

- q-position: [    0.5525000,    0.1050000,    0.5525000 ]
  distance:    0.2109763
  band:
  - # 1
    frequency:    6.5628552697
  - # 2
    frequency:    7.0061665763
  - # 3
    frequency:   12.6578122677
  - # 4
    frequency:   12.8190849353
  - # 5
    frequency:   15.5946323208
  - # 6
    frequency:   15.6473675735

- q-position: [    0.5550000,    0.1100000,    0.5550000 ]
  distance:    0.2122753
  band:
  - # 1
    frequency:    6.5540733086
  - # 2
    frequency:    7.0375196842
  - # 3
    frequency:   12.6341158997
  - # 4
    frequency:   12.8105447554
  - # 5
    frequency:   15.6007403154
  - # 6
    frequency:   15.6572135772

- q-position: [    0.5575000,    0.1150000,    0.5575000 ]
  distance:    0.2135742
  band:
  - # 1
    frequency:    6.5448870501
  - # 2
    frequency:    7.0697682139
  - # 3
    frequency:   12.6095878741
  - # 4
    frequency:   12.8018242937
  - # 5
    frequency:   15.6071182022
  - # 6
    frequency:   15.6672814534

- q-position: [    0.5600000,    0.1200000,    0.5600000 ]
  distance:    0.2148732
  band:
  - # 1
    frequency:    6.5352970610
  - # 2
    frequency:    7.1028404866
  - # 3
    frequency:   12.5842546052
  - # 4
    frequency:   12.7929553984
  - # 5
    frequency:   15.6137640778
  - # 6
    frequency:   15.6775492214

- q-position: [    0.5625000,    0.1250000,    0.5625000 ]
  distance:    0.2161721
  band:
  - # 1
    frequency:    6.5253039331
  - # 2
    frequency:    7.1366625323
  - # 3
    frequency:   12.5581420357
  - # 4
    frequency:   12.7839718054
  - # 5
    frequency:   15.6206759614
  - # 6
    frequency:   15.6879955125

- q-position: [    0.5650000,    0.1300000,    0.5650000 ]
  distance:    0.2174711
  band:
  - # 1
    frequency:    6.5149082828
  - # 2
    frequency:    7.1711581543
  - # 3
    frequency:   12.5312755625
  - # 4
    frequency:   12.7749091871
  - # 5
    frequency:   15.6278517961
  - # 6
    frequency:   15.6985996367

- q-position: [    0.5675000,    0.1350000,    0.5675000 ]
  distance:    0.2187700
  band:
  - # 1
    frequency:    6.5041107517
  - # 2
    frequency:    7.2062489909
  - # 3
    frequency:   12.5036799730
  - # 4
    frequency:   12.7658051967
  - # 5
    frequency:   15.6352894493
  - # 6
    frequency:   15.7093416391

- q-position: [    0.5700000,    0.1400000,    0.5700000 ]
  distance:    0.2200690
  band:
  - # 1
    frequency:    6.4929120060
  - # 2
    frequency:    7.2418545764
  - # 3
    frequency:   12.4753793908
  - # 4
    frequency:   12.7566995096
  - # 5
    frequency:   15.6429867136
  - # 6
    frequency:   15.7202023472

- q-position: [    0.5725000,    0.1450000,    0.5725000 ]
  distance:    0.2213679
  band:
  - # 1
    frequency:    6.4813127366
  - # 2
    frequency:    7.2778924011
  - # 3
    frequency:   12.4463972296
  - # 4
    frequency:   12.7476338598
  - # 5
    frequency:   15.6509413086
  - # 6
    frequency:   15.7311634083

- q-position: [    0.5750000,    0.1500000,    0.5750000 ]
  distance:    0.2226668
  band:
  - # 1
    frequency:    6.4693136592
  - # 2
    frequency:    7.3142779732
  - # 3
    frequency:   12.4167561548
  - # 4
    frequency:   12.7386520685
  - # 5
    frequency:   15.6591508809
  - # 6
    frequency:   15.7422073202

- q-position: [    0.5775000,    0.1550000,    0.5775000 ]
  distance:    0.2239658
  band:
  - # 1
    frequency:    6.4569155143
  - # 2
    frequency:    7.3509248827
  - # 3
    frequency:   12.3864780533
  - # 4
    frequency:   12.7298000650
  - # 5
    frequency:   15.6676130060
  - # 6
    frequency:   15.7533174537

- q-position: [    0.5800000,    0.1600000,    0.5800000 ]
  distance:    0.2252647
  band:
  - # 1
    frequency:    6.4441190667
  - # 2
    frequency:    7.3877448707
  - # 3
    frequency:   12.3555840078
  - # 4
    frequency:   12.7211258966
  - # 5
    frequency:   15.6763251886
  - # 6
    frequency:   15.7644780689

- q-position: [    0.5825000,    0.1650000,    0.5825000 ]
  distance:    0.2265637
  band:
  - # 1
    frequency:    6.4309251061
  - # 2
    frequency:    7.4246479056
  - # 3
    frequency:   12.3240942786
  - # 4
    frequency:   12.7126797259
  - # 5
    frequency:   15.6852848646
  - # 6
    frequency:   15.7756743255

- q-position: [    0.5850000,    0.1700000,    0.5850000 ]
  distance:    0.2278626
  band:
  - # 1
    frequency:    6.4173344465
  - # 2
    frequency:    7.4615422675
  - # 3
    frequency:   12.2920282891
  - # 4
    frequency:   12.7045138134
  - # 5
    frequency:   15.6944894014
  - # 6
    frequency:   15.7868922883

- q-position: [    0.5875000,    0.1750000,    0.5875000 ]
  distance:    0.2291616
  band:
  - # 1
    frequency:    6.4033479265
  - # 2
    frequency:    7.4983346465
  - # 3
    frequency:   12.2594046162
  - # 4
    frequency:   12.6966824819
  - # 5
    frequency:   15.7039360994
  - # 6
    frequency:   15.7981189277

- q-position: [    0.5900000,    0.1800000,    0.5900000 ]
  distance:    0.2304605
  band:
  - # 1
    frequency:    6.3889664090
  - # 2
    frequency:    7.5349302540
  - # 3
    frequency:   12.2262409843
  - # 4
    frequency:   12.6892420608
  - # 5
    frequency:   15.7136221935
  - # 6
    frequency:   15.8093421170

- q-position: [    0.5925000,    0.1850000,    0.5925000 ]
  distance:    0.2317595
  band:
  - # 1
    frequency:    6.3741907815
  - # 2
    frequency:    7.5712329533
  - # 3
    frequency:   12.1925542628
  - # 4
    frequency:   12.6822508073
  - # 5
    frequency:   15.7235448535
  - # 6
    frequency:   15.8205506253

- q-position: [    0.5950000,    0.1900000,    0.5950000 ]
  distance:    0.2330584
  band:
  - # 1
    frequency:    6.3590219556
  - # 2