nqpoint: 255    
npath: 5      
segment_nqpoint:
- 51
- 51
- 51
- 51
- 51
reciprocal_lattice:
- [  -0.18369851,   0.18369851,   0.18369851 ] # a*
- [   0.18369851,  -0.18369851,   0.18369851 ] # b*
- [   0.18369851,   0.18369851,  -0.18369851 ] # c*
natom: 2      
lattice:
- [     0.000000000000000,     2.721851186469726,     2.721851186469726 ] # a
- [     2.721851186469726,     0.000000000000000,     2.721851186469726 ] # b
- [     2.721851186469727,     2.721851186469726,     0.000000000000000 ] # c
points:
- symbol: Si # 1
  coordinates: [  0.250000000000000,  0.250000000000000,  0.250000000000000 ]
  mass: 28.085500
- symbol: Si # 2
  coordinates: [  0.000000000000000,  0.000000000000000,  0.000000000000000 ]
  mass: 28.085500

phonon:
- q-position: [    0.0000000,    0.0000000,    0.0000000 ]
  distance:    0.0000000
  band:
  - # 1
    frequency:   -0.0000003366
  - # 2
    frequency:   -0.0000002977
  - # 3
    frequency:    0.0000000484
  - # 4
    frequency:   17.6459790393
  - # 5
    frequency:   17.6459790393
  - # 6
    frequency:   17.6459790393

- q-position: [    0.0100000,    0.0000000,    0.0100000 ]
  distance:    0.0036740
  band:
  - # 1
    frequency:    0.1798248279
  - # 2
    frequency:    0.1798248279
  - # 3
    frequency:    0.2935761395
  - # 4
    frequency:   17.6440764930
  - # 5
    frequency:   17.6442913702
  - # 6
    frequency:   17.6442913702

- q-position: [    0.0200000,    0.0000000,    0.0200000 ]
  distance:    0.0073479
  band:
  - # 1
    frequency:    0.3595792662
  - # 2
    frequency:    0.3595792662
  - # 3
    frequency:    0.5870628914
  - # 4
    frequency:   17.6383688564
  - # 5
    frequency:   17.6392314489
  - # 6
    frequency:   17.6392314489

- q-position: [    0.0300000,    0.0000000,    0.0300000 ]
  distance:    0.0110219
  band:
  - # 1
    frequency:    0.5391926298
  - # 2
    frequency:    0.5391926298
  - # 3
    frequency:    0.8803708643
  - # 4
    frequency:   17.6288561353
  - # 5
    frequency:   17.6308085463
  - # 6
    frequency:   17.6308085463

- q-position: [    0.0400000,    0.0000000,    0.0400000 ]
  distance:    0.0146959
  band:
  - # 1
    frequency:    0.7185936399
  - # 2
    frequency:    0.7185936399
  - # 3
    frequency:    1.1734106608
  - # 4
    frequency:   17.6155383346
  - # 5
    frequency:   17.6190381566
  - # 6
    frequency:   17.6190381566

- q-position: [    0.0500000,    0.0000000,    0.0500000 ]
  distance:    0.0183699
  band:
  - # 1
    frequency:    0.8977101206
  - # 2
    frequency:    0.8977101206
  - # 3
    frequency:    1.4660928755
  - # 4
    frequency:   17.5984154523
  - # 5
    frequency:   17.6039420619
  - # 6
    frequency:   17.6039420619

- q-position: [    0.0600000,    0.0000000,    0.0600000 ]
  distance:    0.0220438
  band:
  - # 1
    frequency:    1.0764686878
  - # 2
    frequency:    1.0764686878
  - # 3
    frequency:    1.7583280963
  - # 4
    frequency:   17.5774874701
  - # 5
    frequency:   17.5855484224
  - # 6
    frequency:   17.5855484224

- q-position: [    0.0700000,    0.0000000,    0.0700000 ]
  distance:    0.0257178
  band:
  - # 1
    frequency:    1.2547944285
  - # 2
    frequency:    1.2547944285
  - # 3
    frequency:    2.0500269076
  - # 4
    frequency:   17.5527543427
  - # 5
    frequency:   17.5638918918
  - # 6
    frequency:   17.5638918918

- q-position: [    0.0800000,    0.0000000,    0.0800000 ]
  distance:    0.0293918
  band:
  - # 1
    frequency:    1.4326105666
  - # 2
    frequency:    1.4326105666
  - # 3
    frequency:    2.3410998973
  - # 4
    frequency:   17.5242159852
  - # 5
    frequency:   17.5390137604
  - # 6
    frequency:   17.5390137604

- q-position: [    0.0900000,    0.0000000,    0.0900000 ]
  distance:    0.0330657
  band:
  - # 1
    frequency:    1.6098381141
  - # 2
    frequency:    1.6098381141
  - # 3
    frequency:    2.6314576679
  - # 4
    frequency:   17.4918722583
  - # 5
    frequency:   17.5109621220
  - # 6
    frequency:   17.5109621220

- q-position: [    0.1000000,    0.0000000,    0.1000000 ]
  distance:    0.0367397
  band:
  - # 1
    frequency:    1.7863955057
  - # 2
    frequency:    1.7863955057
  - # 3
    frequency:    2.9210108516
  - # 4
    frequency:   17.4557229538
  - # 5
    frequency:   17.4797920689
  - # 6
    frequency:   17.4797920689

- q-position: [    0.1100000,    0.0000000,    0.1100000 ]
  distance:    0.0404137
  band:
  - # 1
    frequency:    1.9621982133
  - # 2
    frequency:    1.9621982133
  - # 3
    frequency:    3.2096701317
  - # 4
    frequency:   17.4157677787
  - # 5
    frequency:   17.4455659122
  - # 6
    frequency:   17.4455659122

- q-position: [    0.1200000,    0.0000000,    0.1200000 ]
  distance:    0.0440876
  band:
  - # 1
    frequency:    2.1371583393
  - # 2
    frequency:    2.1371583393
  - # 3
    frequency:    3.4973462674
  - # 4
    frequency:   17.3720063399
  - # 5
    frequency:   17.4083534282
  - # 6
    frequency:   17.4083534282

- q-position: [    0.1300000,    0.0000000,    0.1300000 ]
  distance:    0.0477616
  band:
  - # 1
    frequency:    2.3111841879
  - # 2
    frequency:    2.3111841879
  - # 3
    frequency:    3.7839501266
  - # 4
    frequency:   17.3244381286
  - # 5
    frequency:   17.3682321316
  - # 6
    frequency:   17.3682321316

- q-position: [    0.1400000,    0.0000000,    0.1400000 ]
  distance:    0.0514356
  band:
  - # 1
    frequency:    2.4841798107
  - # 2
    frequency:    2.4841798107
  - # 3
    frequency:    4.0693927230
  - # 4
    frequency:   17.2730625073
  - # 5
    frequency:   17.3252875740
  - # 6
    frequency:   17.3252875740

- q-position: [    0.1500000,    0.0000000,    0.1500000 ]
  distance:    0.0551096
  band:
  - # 1
    frequency:    2.6560445273
  - # 2
    frequency:    2.6560445273
  - # 3
    frequency:    4.3535852603
  - # 4
    frequency:   17.2178786975
  - # 5
    frequency:   17.2796136688
  - # 6
    frequency:   17.2796136688

- q-position: [    0.1600000,    0.0000000,    0.1600000 ]
  distance:    0.0587835
  band:
  - # 1
    frequency:    2.8266724199
  - # 2
    frequency:    2.8266724199
  - # 3
    frequency:    4.6364391828
  - # 4
    frequency:   17.1588857701
  - # 5
    frequency:   17.2313130410
  - # 6
    frequency:   17.2313130410

- q-position: [    0.1700000,    0.0000000,    0.1700000 ]
  distance:    0.0624575
  band:
  - # 1
    frequency:    2.9959518004
  - # 2
    frequency:    2.9959518004
  - # 3
    frequency:    4.9178662318
  - # 4
    frequency:   17.0960826389
  - # 5
    frequency:   17.1804974010
  - # 6
    frequency:   17.1804974010

- q-position: [    0.1800000,    0.0000000,    0.1800000 ]
  distance:    0.0661315
  band:
  - # 1
    frequency:    3.1637646520
  - # 2
    frequency:    3.1637646520
  - # 3
    frequency:    5.1977785090
  - # 4
    frequency:   17.0294680578
  - # 5
    frequency:   17.1272879416
  - # 6
    frequency:   17.1272879416

- q-position: [    0.1900000,    0.0000000,    0.1900000 ]
  distance:    0.0698054
  band:
  - # 1
    frequency:    3.3299860447
  - # 2
    frequency:    3.3299860447
  - # 3
    frequency:    5.4760885456
  - # 4
    frequency:   16.9590406219
  - # 5
    frequency:   17.0718157565
  - # 6
    frequency:   17.0718157565

- q-position: [    0.2000000,    0.0000000,    0.2000000 ]
  distance:    0.0734794
  band:
  - # 1
    frequency:    3.4944835286
  - # 2
    frequency:    3.4944835286
  - # 3
    frequency:    5.7527093773
  - # 4
    frequency:   16.8847987734
  - # 5
    frequency:   17.0142222765
  - # 6
    frequency:   17.0142222765

- q-position: [    0.2100000,    0.0000000,    0.2100000 ]
  distance:    0.0771534
  band:
  - # 1
    frequency:    3.6571165057
  - # 2
    frequency:    3.6571165057
  - # 3
    frequency:    6.0275546257
  - # 4
    frequency:   16.8067408132
  - # 5
    frequency:   16.9546597208
  - # 6
    frequency:   16.9546597208

- q-position: [    0.2200000,    0.0000000,    0.2200000 ]
  distance:    0.0808273
  band:
  - # 1
    frequency:    3.8177355877
  - # 2
    frequency:    3.8177355877
  - # 3
    frequency:    6.3005385841
  - # 4
    frequency:   16.7248649170
  - # 5
    frequency:   16.8932915590
  - # 6
    frequency:   16.8932915590

- q-position: [    0.2300000,    0.0000000,    0.2300000 ]
  distance:    0.0845013
  band:
  - # 1
    frequency:    3.9761819431
  - # 2
    frequency:    3.9761819431
  - # 3
    frequency:    6.5715763086
  - # 4
    frequency:   16.6391691590
  - # 5
    frequency:   16.8302929759
  - # 6
    frequency:   16.8302929759

- q-position: [    0.2400000,    0.0000000,    0.2400000 ]
  distance:    0.0881753
  band:
  - # 1
    frequency:    4.1322866438
  - # 2
    frequency:    4.1322866438
  - # 3
    frequency:    6.8405837132
  - # 4
    frequency:   16.5496515408
  - # 5
    frequency:   16.7658513322
  - # 6
    frequency:   16.7658513322

- q-position: [    0.2500000,    0.0000000,    0.2500000 ]
  distance:    0.0918493
  band:
  - # 1
    frequency:    4.2858700220
  - # 2
    frequency:    4.2858700220
  - # 3
    frequency:    7.1074776691
  - # 4
    frequency:   16.4563100275
  - # 5
    frequency:   16.7001666098
  - # 6
    frequency:   16.7001666098

- q-position: [    0.2600000,    0.0000000,    0.2600000 ]
  distance:    0.0955232
  band:
  - # 1
    frequency:    4.4367410494
  - # 2
    frequency:    4.4367410494
  - # 3
    frequency:    7.3721761066
  - # 4
    frequency:   16.3591425907
  - # 5
    frequency:   16.6334518291
  - # 6
    frequency:   16.6334518291

- q-position: [    0.2700000,    0.0000000,    0.2700000 ]
  distance:    0.0991972
  band:
  - # 1
    frequency:    4.5846967585
  - # 2
    frequency:    4.5846967585
  - # 3
    frequency:    7.6345981194
  - # 4
    frequency:   16.2581472578
  - # 5
    frequency:   16.5659334200
  - # 6
    frequency:   16.5659334200

- q-position: [    0.2800000,    0.0000000,    0.2800000 ]
  distance:    0.1028712
  band:
  - # 1
    frequency:    4.7295217245
  - # 2
    frequency:    4.7295217245
  - # 3
    frequency:    7.8946640707
  - # 4
    frequency:   16.1533221698
  - # 5
    frequency:   16.4978515287
  - # 6
    frequency:   16.4978515287

- q-position: [    0.2900000,    0.0000000,    0.2900000 ]
  distance:    0.1065451
  band:
  - # 1
    frequency:    4.8709876353
  - # 2
    frequency:    4.8709876353
  - # 3
    frequency:    8.1522957002
  - # 4
    frequency:   16.0446656440
  - # 5
    frequency:   16.4294602321
  - # 6
    frequency:   16.4294602321

- q-position: [    0.3000000,    0.0000000,    0.3000000 ]
  distance:    0.1102191
  band:
  - # 1
    frequency:    5.0088529803
  - # 2
    frequency:    5.0088529803
  - # 3
    frequency:    8.4074162309
  - # 4
    frequency:   15.9321762454
  - # 5
    frequency:   16.3610276333
  - # 6
    frequency:   16.3610276333

- q-position: [    0.3100000,    0.0000000,    0.3100000 ]
  distance:    0.1138931
  band:
  - # 1
    frequency:    5.1428628916
  - # 2
    frequency:    5.1428628916
  - # 3
    frequency:    8.6599504749
  - # 4
    frequency:   15.8158528634
  - # 5
    frequency:   16.2928358004
  - # 6
    frequency:   16.2928358004

- q-position: [    0.3200000,    0.0000000,    0.3200000 ]
  distance:    0.1175670
  band:
  - # 1
    frequency:    5.2727491829
  - # 2
    frequency:    5.2727491829
  - # 3
    frequency:    8.9098249381
  - # 4
    frequency:   15.6956947954
  - # 5
    frequency:   16.2251805099
  - # 6
    frequency:   16.2251805099

- q-position: [    0.3300000,    0.0000000,    0.3300000 ]
  distance:    0.1212410
  band:
  - # 1
    frequency:    5.3982306291
  - # 2
    frequency:    5.3982306291
  - # 3
    frequency:    9.1569679223
  - # 4
    frequency:   15.5717018361
  - # 5
    frequency:   16.1583707491
  - # 6
    frequency:   16.1583707491

- q-position: [    0.3400000,    0.0000000,    0.3400000 ]
  distance:    0.1249150
  band:
  - # 1
    frequency:    5.5190135399
  - # 2
    frequency:    5.5190135399
  - # 3
    frequency:    9.4013096230
  - # 4
    frequency:   15.4438743719
  - # 5
    frequency:   16.0927279255
  - # 6
    frequency:   16.0927279255

- q-position: [    0.3500000,    0.0000000,    0.3500000 ]
  distance:    0.1285890
  band:
  - # 1
    frequency:    5.6347926823
  - # 2
    frequency:    5.6347926823
  - # 3
    frequency:    9.6427822248
  - # 4
    frequency:   15.3122134809
  - # 5
    frequency:   16.0285847321
  - # 6
    frequency:   16.0285847321

- q-position: [    0.3600000,    0.0000000,    0.3600000 ]
  distance:    0.1322629
  band:
  - # 1
    frequency:    5.7452526059
  - # 2
    frequency:    5.7452526059
  - # 3
    frequency:    9.8813199898
  - # 4
    frequency:   15.1767210363
  - # 5
    frequency:   15.9662836127
  - # 6
    frequency:   15.9662836127

- q-position: [    0.3700000,    0.0000000,    0.3700000 ]
  distance:    0.1359369
  band:
  - # 1
    frequency:    5.8500694271
  - # 2
    frequency:    5.8500694271
  - # 3
    frequency:   10.1168593422
  - # 4
    frequency:   15.0373998140
  - # 5
    frequency:   15.9061747746
  - # 6
    frequency:   15.9061747746

- q-position: [    0.3800000,    0.0000000,    0.3800000 ]
  distance:    0.1396109
  band:
  - # 1
    frequency:    5.9489131184
  - # 2
    frequency:    5.9489131184
  - # 3
    frequency:   10.3493389447
  - # 4
    frequency:   14.8942536023
  - # 5
    frequency:   15.8486137022
  - # 6
    frequency:   15.8486137022

- q-position: [    0.3900000,    0.0000000,    0.3900000 ]
  distance:    0.1432848
  band:
  - # 1
    frequency:    6.0414503398
  - # 2
    frequency:    6.0414503398
  - # 3
    frequency:   10.5786997691
  - # 4
    frequency:   14.7472873147
  - # 5
    frequency:   15.7939581365
  - # 6
    frequency:   15.7939581365

- q-position: [    0.4000000,    0.0000000,    0.4000000 ]
  distance:    0.1469588
  band:
  - # 1
    frequency:    6.1273478307
  - # 2
    frequency:    6.1273478307
  - # 3
    frequency:   10.8048851584
  - # 4
    frequency:   14.5965071026
  - # 5
    frequency:   15.7425645031
  - # 6
    frequency:   15.7425645031

- q-position: [    0.4100000,    0.0000000,    0.4100000 ]
  distance:    0.1506328
  band:
  - # 1
    frequency:    6.2062763574
  - # 2
    frequency:    6.2062763574
  - # 3
    frequency:   11.0278408802
  - # 4
    frequency:   14.4419204696
  - # 5
    frequency:   15.6947837950
  - # 6
    frequency:   15.6947837950

- q-position: [    0.4200000,    0.0000000,    0.4200000 ]
  distance:    0.1543067
  band:
  - # 1
    frequency:    6.2779151775
  - # 2
    frequency:    6.2779151775
  - # 3
    frequency:   11.2475151725
  - # 4
    frequency:   14.2835363844
  - # 5
    frequency:   15.6509569480
  - # 6
    frequency:   15.6509569480

- q-position: [    0.4300000,    0.0000000,    0.4300000 ]
  distance:    0.1579807
  band:
  - # 1
    frequency:    6.3419569486
  - # 2
    frequency:    6.3419569486
  - # 3
    frequency:   11.4638587790
  - # 4
    frequency:   14.1213653926
  - # 5
    frequency:   15.6114097855
  - # 6
    frequency:   15.6114097855

- q-position: [    0.4400000,    0.0000000,    0.4400000 ]
  distance:    0.1616547
  band:
  - # 1
    frequency:    6.3981129653
  - # 2
    frequency:    6.3981129653
  - # 3
    frequency:   11.6768249750
  - # 4
    frequency:   13.9554197265
  - # 5
    frequency:   15.5764476477
  - # 6
    frequency:   15.5764476477

- q-position: [    0.4500000,    0.0000000,    0.4500000 ]
  distance:    0.1653287
  band:
  - # 1
    frequency:    6.4461185661
  - # 2
    frequency:    6.4461185661
  - # 3
    frequency:   11.8863695842
  - # 4
    frequency:   13.7857134113
  - # 5
    frequency:   15.5463498630
  - # 6
    frequency:   15.5463498630

- q-position: [    0.4600000,    0.0000000,    0.4600000 ]
  distance:    0.1690026
  band:
  - # 1
    frequency:    6.4857385177
  - # 2
    frequency:    6.4857385177
  - # 3
    frequency:   12.0924509842
  - # 4
    frequency:   13.6122623672
  - # 5
    frequency:   15.5213642591
  - # 6
    frequency:   15.5213642591

- q-position: [    0.4700000,    0.0000000,    0.4700000 ]
  distance:    0.1726766
  band:
  - # 1
    frequency:    6.5167721481
  - # 2
    frequency:    6.5167721481
  - # 3
    frequency:   12.2950301028
  - # 4
    frequency:   13.4350845072
  - # 5
    frequency:   15.5017019380
  - # 6
    frequency:   15.5017019380

- q-position: [    0.4800000,    0.0000000,    0.4800000 ]
  distance:    0.1763506
  band:
  - # 1
    frequency:    6.5390579915
  - # 2
    frequency:    6.5390579915
  - # 3
    frequency:   12.4940704039
  - # 4
    frequency:   13.2541998287
  - # 5
    frequency:   15.4875325567
  - # 6
    frequency:   15.4875325567

- q-position: [    0.4900000,    0.0000000,    0.4900000 ]
  distance:    0.1800245
  band:
  - # 1
    frequency:    6.5524777046
  - # 2
    frequency:    6.5524777046
  - # 3
    frequency:   12.6895378628
  - # 4
    frequency:   13.0696304987
  - # 5
    frequency:   15.4789803516
  - # 6
    frequency:   15.4789803516

- q-position: [    0.5000000,    0.0000000,    0.5000000 ]
  distance:    0.1836985
  band:
  - # 1
    frequency:    6.5569590401
  - # 2
    frequency:    6.5569590401
  - # 3
    frequency:   12.8814009323
  - # 4
    frequency:   12.8814009323
  - # 5
    frequency:   15.4761211232
  - # 6
    frequency:   15.4761211232

- q-position: [    0.5000000,    0.0000000,    0.5000000 ]
  distance:    0.1836985
  band:
  - # 1
    frequency:    6.5569590401
  - # 2
    frequency:    6.5569590401
  - # 3
    frequency:   12.8814009323
  - # 4
    frequency:   12.8814009323
  - # 5
    frequency:   15.4761211232
  - # 6
    frequency:   15.4761211232

- q-position: [    0.5025000,    0.0050000,    0.5025000 ]
  distance:    0.1849975
  band:
  - # 1
    frequency:    6.5567487848
  - # 2
    frequency:    6.5578347283
  - # 3
    frequency:   12.8807673566
  - # 4
    frequency:   12.8811482417
  - # 5
    frequency:   15.4762651906
  - # 6
    frequency:   15.4764215426

- q-position: [    0.5050000,    0.0100000,    0.5050000 ]
  distance:    0.1862964
  band:
  - # 1
    frequency:    6.5561180560
  - # 2
    frequency:    6.5604598662
  - # 3
    frequency:   12.8788679279
  - # 4
    frequency:   12.8803907695
  - # 5
    frequency:   15.4766973530
  - # 6
    frequency:   15.4773216225

- q-position: [    0.5075000,    0.0150000,    0.5075000 ]
  distance:    0.1875953
  band:
  - # 1
    frequency:    6.5550669645
  - # 2
    frequency:    6.5648286794
  - # 3
    frequency:   12.8757065279
  - # 4
    frequency:   12.8791303162
  - # 5
    frequency:   15.4774174907
  - # 6
    frequency:   15.4788178406

- q-position: [    0.5100000,    0.0200000,    0.5100000 ]
  distance:    0.1888943
  band:
  - # 1
    frequency:    6.5535956948
  - # 2
    frequency:    6.5709315614
  - # 3
    frequency:   12.8712895789
  - # 4
    frequency:   12.8773698876
  - # 5
    frequency:   15.4784254045
  - # 6
    frequency:   15.4809043734

- q-position: [    0.5125000,    0.0250000,    0.5125000 ]
  distance:    0.1901932
  band:
  - # 1
    frequency:    6.5517045048
  - # 2
    frequency:    6.5787551002
  - # 3
    frequency:   12.8656259752
  - # 4
    frequency:   12.8751137018
  - # 5
    frequency:   15.4797208151
  - # 6
    frequency:   15.4835731633

- q-position: [    0.5150000,    0.0300000,    0.5150000 ]
  distance:    0.1914922
  band:
  - # 1
    frequency:    6.5493937252
  - # 2
    frequency:    6.5882821146
  - # 3
    frequency:   12.8587269886
  - # 4
    frequency:   12.8723671999
  - # 5
    frequency:   15.4813033638
  - # 6
    frequency:   15.4868140121

- q-position: [    0.5175000,    0.0350000,    0.5175000 ]
  distance:    0.1927911
  band:
  - # 1
    frequency:    6.5466637589
  - # 2
    frequency:    6.5994916998
  - # 3
    frequency:   12.8506061516
  - # 4
    frequency:   12.8691370587
  - # 5
    frequency:   15.4831726117
  - # 6
    frequency:   15.4906146963

- q-position: [    0.5200000,    0.0400000,    0.5200000 ]
  distance:    0.1940901
  band:
  - # 1
    frequency:    6.5435150806
  - # 2
    frequency:    6.6123592819
  - # 3
    frequency:   12.8412791202
  - # 4
    frequency:   12.8654312071
  - # 5
    frequency:   15.4853280405
  - # 6
    frequency:   15.4949611018

- q-position: [    0.5225000,    0.0450000,    0.5225000 ]
  distance:    0.1953890
  band:
  - # 1
    frequency:    6.5399482354
  - # 2
    frequency:    6.6268566809
  - # 3
    frequency:   12.8307635202
  - # 4
    frequency:   12.8612588450
  - # 5
    frequency:   15.4877690517
  - # 6
    frequency:   15.4998373756

- q-position: [    0.5250000,    0.0500000,    0.5250000 ]
  distance:    0.1966880
  band:
  - # 1
    frequency:    6.5359638381
  - # 2
    frequency:    6.6429521797
  - # 3
    frequency:   12.8190787793
  - # 4
    frequency:   12.8566304651
  - # 5
    frequency:   15.4904949673
  - # 6
    frequency:   15.5052260908

- q-position: [    0.5275000,    0.0550000,    0.5275000 ]
  distance:    0.1979869
  band:
  - # 1
    frequency:    6.5315625723
  - # 2
    frequency:    6.6606106003
  - # 3
    frequency:   12.8062459500
  - # 4
    frequency:   12.8515578782
  - # 5
    frequency:   15.4935050292
  - # 6
    frequency:   15.5111084205

- q-position: [    0.5300000,    0.0600000,    0.5300000 ]
  distance:    0.1992858
  band:
  - # 1
    frequency:    6.5267451888
  - # 2
    frequency:    6.6797933846
  - # 3
    frequency:   12.7922875251
  - # 4
    frequency:   12.8460542399
  - # 5
    frequency:   15.4967983994
  - # 6
    frequency:   15.5174643187

- q-position: [    0.5325000,    0.0650000,    0.5325000 ]
  distance:    0.2005848
  band:
  - # 1
    frequency:    6.5215125045
  - # 2
    frequency:    6.7004586791
  - # 3
    frequency:   12.7772272509
  - # 4
    frequency:   12.8401340824
  - # 5
    frequency:   15.5003741602
  - # 6
    frequency:   15.5242727039

- q-position: [    0.5350000,    0.0700000,    0.5350000 ]
  distance:    0.2018837
  band:
  - # 1
    frequency:    6.5158654006
  - # 2
    frequency:    6.7225614232
  - # 3
    frequency:   12.7610899393
  - # 4
    frequency:   12.8338133467
  - # 5
    frequency:   15.5042313138
  - # 6
    frequency:   15.5315116420

- q-position: [    0.5375000,    0.0750000,    0.5375000 ]
  distance:    0.2031827
  band:
  - # 1
    frequency:    6.5098048216
  - # 2
    frequency:    6.7460534388
  - # 3
    frequency:   12.7439012831
  - # 4
    frequency:   12.8271094192
  - # 5
    frequency:   15.5083687826
  - # 6
    frequency:   15.5391585269

- q-position: [    0.5400000,    0.0800000,    0.5400000 ]
  distance:    0.2044816
  band:
  - # 1
    frequency:    6.5033317731
  - # 2
    frequency:    6.7708835212
  - # 3
    frequency:   12.7256876766
  - # 4
    frequency:   12.8200411701
  - # 5
    frequency:   15.5127854091
  - # 6
    frequency:   15.5471902551

- q-position: [    0.5425000,    0.0850000,    0.5425000 ]
  distance:    0.2057806
  band:
  - # 1
    frequency:    6.4964473203
  - # 2
    frequency:    6.7969975295
  - # 3
    frequency:   12.7064760425
  - # 4
    frequency:   12.8126289944
  - # 5
    frequency:   15.5174799559
  - # 6
    frequency:   15.5555833932

- q-position: [    0.5450000,    0.0900000,    0.5450000 ]
  distance:    0.2070795
  band:
  - # 1
    frequency:    6.4891525861
  - # 2
    frequency:    6.8243384767
  - # 3
    frequency:   12.6862936689
  - # 4
    frequency:   12.8048948554
  - # 5
    frequency:   15.5224511057
  - # 6
    frequency:   15.5643143359

- q-position: [    0.5475000,    0.0950000,    0.5475000 ]
  distance:    0.2083785
  band:
  - # 1
    frequency:    6.4814487490
  - # 2
    frequency:    6.8528466171
  - # 3
    frequency:   12.6651680553
  - # 4
    frequency:   12.7968623296
  - # 5
    frequency:   15.5276974617
  - # 6
    frequency:   15.5733594535

- q-position: [    0.5500000,    0.1000000,    0.5500000 ]
  distance:    0.2096774
  band:
  - # 1
    frequency:    6.4733370411
  - # 2
    frequency:    6.8824595323
  - # 3
    frequency:   12.6431267703
  - # 4
    frequency:   12.7885566543
  - # 5
    frequency:   15.5332175471
  - # 6
    frequency:   15.5826952288

- q-position: [    0.5525000,    0.1050000,    0.5525000 ]
  distance:    0.2109763
  band:
  - # 1
    frequency:    6.4648187462
  - # 2
    frequency:    6.9131122134
  - # 3
    frequency:   12.6201973208
  - # 4
    frequency:   12.7800047761
  - # 5
    frequency:   15.5390098055
  - # 6
    frequency:   15.5922983807

- q-position: [    0.5550000,    0.1100000,    0.5550000 ]
  distance:    0.2122753
  band:
  - # 1
    frequency:    6.4558951973
  - # 2
    frequency:    6.9447371401
  - # 3
    frequency:   12.5964070326
  - # 4
    frequency:   12.7712353999
  - # 5
    frequency:   15.5450726013
  - # 6
    frequency:   15.6021459771

- q-position: [    0.5575000,    0.1150000,    0.5575000 ]
  distance:    0.2135742
  band:
  - # 1
    frequency:    6.4465677745
  - # 2
    frequency:    6.9772643565
  - # 3
    frequency:   12.5717829438
  - # 4
    frequency:   12.7622790394
  - # 5
    frequency:   15.5514042191
  - # 6
    frequency:   15.6122155343

- q-position: [    0.5600000,    0.1200000,    0.5600000 ]
  distance:    0.2148732
  band:
  - # 1
    frequency:    6.4368379024
  - # 2
    frequency:    7.0106215429
  - # 3
    frequency:   12.5463517090
  - # 4
    frequency:   12.7531680663
  - # 5
    frequency:   15.5580028647
  - # 6
    frequency:   15.6224851059

- q-position: [    0.5625000,    0.1250000,    0.5625000 ]
  distance:    0.2161721
  band:
  - # 1
    frequency:    6.4267070483
  - # 2
    frequency:    7.0447340845
  - # 3
    frequency:   12.5201395149
  - # 4
    frequency:   12.7439367600
  - # 5
    frequency:   15.5648666646
  - # 6
    frequency:   15.6329333589

- q-position: [    0.5650000,    0.1300000,    0.5650000 ]
  distance:    0.2174711
  band:
  - # 1
    frequency:    6.4161767189
  - # 2
    frequency:    7.0795251371
  - # 3
    frequency:   12.4931720069
  - # 4
    frequency:   12.7346213536
  - # 5
    frequency:   15.5719936668
  - # 6
    frequency:   15.6435396393

- q-position: [    0.5675000,    0.1350000,    0.5675000 ]
  distance:    0.2187700
  band:
  - # 1
    frequency:    6.4052484587
  - # 2
    frequency:    7.1149156901
  - # 3
    frequency:   12.4654742255
  - # 4
    frequency:   12.7252600789
  - # 5
    frequency:   15.5793818407
  - # 6
    frequency:   15.6542840280

- q-position: [    0.5700000,    0.1400000,    0.5700000 ]
  distance:    0.2200690
  band:
  - # 1
    frequency:    6.3939238469
  - # 2
    frequency:    7.1508246286
  - # 3
    frequency:   12.4370705519
  - # 4
    frequency:   12.7158932064
  - # 5
    frequency:   15.5870290774
  - # 6
    frequency:   15.6651473861

- q-position: [    0.5725000,    0.1450000,    0.5725000 ]
  distance:    0.2213679
  band:
  - # 1
    frequency:    6.3822044950
  - # 2
    frequency:    7.1871687952
  - # 3
    frequency:   12.4079846626
  - # 4
    frequency:   12.7065630799
  - # 5
    frequency:   15.5949331903
  - # 6
    frequency:   15.6761113923

- q-position: [    0.5750000,    0.1500000,    0.5750000 ]
  distance:    0.2226668
  band:
  - # 1
    frequency:    6.3700920443
  - # 2
    frequency:    7.2238630519
  - # 3
    frequency:   12.3782394912
  - # 4
    frequency:   12.6973141447
  - # 5
    frequency:   15.6030919153
  - # 6
    frequency:   15.6871585718

- q-position: [    0.5775000,    0.1550000,    0.5775000 ]
  distance:    0.2239658
  band:
  - # 1
    frequency:    6.3575881632
  - # 2
    frequency:    7.2608203463
  - # 3
    frequency:   12.3478571977
  - # 4
    frequency:   12.6881929666
  - # 5
    frequency:   15.6115029113
  - # 6
    frequency:   15.6982723178

- q-position: [    0.5800000,    0.1600000,    0.5800000 ]
  distance:    0.2252647
  band:
  - # 1
    frequency:    6.3446945447
  - # 2
    frequency:    7.2979517813
  - # 3
    frequency:   12.3168591437
  - # 4
    frequency:   12.6792482403
  - # 5
    frequency:   15.6201637605
  - # 6
    frequency:   15.7094369073

- q-position: [    0.5825000,    0.1650000,    0.5825000 ]
  distance:    0.2265637
  band:
  - # 1
    frequency:    6.3314129038
  - # 2
    frequency:    7.3351666925
  - # 3
    frequency:   12.2852658739
  - # 4
    frequency:   12.6705307850
  - # 5
    frequency:   15.6290719693
  - # 6
    frequency:   15.7206375101

- q-position: [    0.5850000,    0.1700000,    0.5850000 ]
  distance:    0.2278626
  band:
  - # 1
    frequency:    6.3177449748
  - # 2
    frequency:    7.3723727346
  - # 3
    frequency:   12.2530971013
  - # 4
    frequency:   12.6620935251
  - # 5
    frequency:   15.6382249685
  - # 6
    frequency:   15.7318601938

- q-position: [    0.5875000,    0.1750000,    0.5875000 ]
  distance:    0.2291616
  band:
  - # 1
    frequency:    6.3036925088
  - # 2
    frequency:    7.4094759800
  - # 3
    frequency:   12.2203716976
  - # 4
    frequency:   12.6539914520
  - # 5
    frequency:   15.6476201141
  - # 6
    frequency:   15.7430919234

- q-position: [    0.5900000,    0.1800000,    0.5900000 ]
  distance:    0.2304605
  band:
  - # 1
    frequency:    6.2892572712
  - # 2
    frequency:    7.4463810324
  - # 3
    frequency:   12.1871076874
  - # 4
    frequency:   12.6462815669
  - # 5
    frequency:   15.6572546879
  - # 6
    frequency:   15.7543205576

- q-position: [    0.5925000,    0.1850000,    0.5925000 ]
  distance:    0.2317595
  band:
  - # 1
    frequency:    6.2744410390
  - # 2
    frequency:    7.4829911588
  - # 3
    frequency:   12.1533222447
  - # 4
    frequency:   12.6390227986
  - # 5
    frequency:   15.6671258985
  - # 6
    frequency:   15.7655348418

- q-position: [    0.5950000,    0.1900000,    0.5950000 ]
  distance:    0.2330584
  band:
  - # 1
    frequency:    6.2592455983
  - # 2