64   
1    

1    
  0.0100000000000000   0.0000000000000000   0.0000000000000000
  -0.1751251298   -0.0000000002   -0.0000000002
   0.0000000002   -0.0000000002   -0.0000000002
   0.0000000002   -0.0000000002   -0.0000000002
   0.0000000002   -0.0000000002   -0.0000000002
   0.0000000002   -0.0000000002   -0.0000000002
   0.0000000002   -0.0000000002   -0.0000000002
   0.0000000002   -0.0000000002   -0.0000000002
   0.0000000002   -0.0000000002   -0.0000000002
   0.0000000002   -0.0000000002   -0.0000000002
   0.0454119602   -0.0285065202    0.0285065198
   0.0000000002   -0.0000000002   -0.0000000002
   0.0000000002   -0.0000000002   -0.0000000002
   0.0000000002   -0.0000000002   -0.0000000002
   0.0000000002   -0.0000000002   -0.0000000002
   0.0000000002   -0.0000000002   -0.0000000002
   0.0000000002   -0.0000000002   -0.0000000002
  -0.0028049398    0.0013872098   -0.0013872102
   0.0000000002   -0.0000000002   -0.0000000002
  -0.0027411498    0.0013855098    0.0013855098
   0.0000000002   -0.0000000002   -0.0000000002
  -0.0027411498   -0.0013855102   -0.0013855102
   0.0000000002   -0.0000000002   -0.0000000002
  -0.0028049398   -0.0013872102    0.0013872098
   0.0000000002   -0.0000000002   -0.0000000002
   0.0000000002   -0.0000000002   -0.0000000002
   0.0000000002   -0.0000000002   -0.0000000002
   0.0000000002   -0.0000000002   -0.0000000002
   0.0454119602    0.0285065198   -0.0285065202
   0.0000000002   -0.0000000002   -0.0000000002
   0.0000000002   -0.0000000002   -0.0000000002
   0.0000000002   -0.0000000002   -0.0000000002
   0.0000000002   -0.0000000002   -0.0000000002
   0.0006865502   -0.0013730002   -0.0006790102
   0.0006999502   -0.0013999802    0.0007076898
   0.0000000002   -0.0000000002   -0.0000000002
   0.0000000002   -0.0000000002   -0.0000000002
   0.0006865502    0.0013729998    0.0006790098
   0.0006999502    0.0013999798   -0.0007076902
   0.0000000002   -0.0000000002   -0.0000000002
   0.0000000002   -0.0000000002   -0.0000000002
   0.0449236902    0.0280765298    0.0280765298
   0.0000000002   -0.0000000002   -0.0000000002
   0.0000000002   -0.0000000002   -0.0000000002
   0.0000000002   -0.0000000002   -0.0000000002
   0.0000000002   -0.0000000002   -0.0000000002
   0.0000000002   -0.0000000002   -0.0000000002
   0.0000000002   -0.0000000002   -0.0000000002
   0.0000000002   -0.0000000002   -0.0000000002
   0.0006865502    0.0006790098    0.0013729998
   0.0006999502   -0.0007076902    0.0013999898
   0.0006865502   -0.0006790102   -0.0013730002
   0.0006999502    0.0007076998   -0.0013999802
   0.0000000002   -0.0000000002   -0.0000000002
   0.0000000002   -0.0000000002   -0.0000000002
   0.0000000002   -0.0000000002   -0.0000000002
   0.0000000002   -0.0000000002   -0.0000000002
   0.0000000002   -0.0000000002   -0.0000000002
   0.0000000002   -0.0000000002   -0.0000000002
   0.0449236902   -0.0280765302   -0.0280765302
   0.0000000002   -0.0000000002   -0.0000000002
   0.0000000002   -0.0000000002   -0.0000000002
   0.0000000002   -0.0000000002   -0.0000000002
   0.0000000002   -0.0000000002   -0.0000000002
   0.0000000002   -0.0000000002   -0.0000000002
