ITEM: TIMESTEP
0
ITEM: NUMBER OF ATOMS
64
ITEM: BOX BOUNDS xy xz yz pp pp pp
0.0000000000000000e+00 1.0887404745800000e+01 6.6666126864828362e-16
0.0000000000000000e+00 1.0887404745800001e+01 6.6666126864828362e-16
0.0000000000000000e+00 1.0887404745800000e+01 1.2087447427200359e-15
ITEM: ATOMS id type x y z fx fy fz
25 1      0.00000000      0.00000000      0.00000000      0.00000000      0.00000000      0.00000000
41 1      2.72185119      2.72185119      0.00000000      0.04492369      0.02807653      0.02807653
49 1      1.36092559      1.36092559      1.36092559      0.00068655      0.00067901      0.00137300
1 1      4.09277678      4.08277678      1.36092559     -0.17512513     -0.00000000      0.00000000
26 1      5.44370237      0.00000000      0.00000000      0.00000000      0.00000000      0.00000000
50 1      6.80462797      1.36092559      1.36092559      0.00069995     -0.00070769      0.00139999
2 1      9.52647915      4.08277678      1.36092559     -0.00000000     -0.00000000      0.00000000
42 1      8.16555356      2.72185119      0.00000000     -0.00000000     -0.00000000      0.00000000
9 1      0.00000000      2.72185119      2.72185119      0.00000000     -0.00000000     -0.00000000
33 1      1.36092559      4.08277678      4.08277678      0.00068655     -0.00137300     -0.00067901
57 1      2.72185119      0.00000000      2.72185119     -0.00000000      0.00000000     -0.00000000
10 1      5.44370237      2.72185119      2.72185119      0.04541196     -0.02850652      0.02850652
17 1      4.08277678      1.36092559      4.08277678     -0.00280494      0.00138721     -0.00138721
34 1      6.80462797      4.08277678      4.08277678      0.00069995     -0.00139998      0.00070769
18 1      9.52647915      1.36092559      4.08277678     -0.00000000      0.00000000     -0.00000000
58 1      8.16555356      0.00000000      2.72185119     -0.00000000      0.00000000     -0.00000000
29 1      0.00000000      0.00000000      5.44370237      0.00000000      0.00000000      0.00000000
45 1      2.72185119      2.72185119      5.44370237     -0.00000000     -0.00000000      0.00000000
30 1      5.44370237      0.00000000      5.44370237      0.00000000      0.00000000      0.00000000
46 1      8.16555356      2.72185119      5.44370237     -0.00000000     -0.00000000      0.00000000
13 1      0.00000000      2.72185119      8.16555356      0.00000000     -0.00000000     -0.00000000
53 1      1.36092559      1.36092559      6.80462797      0.00000000      0.00000000      0.00000000
61 1      2.72185119      0.00000000      8.16555356     -0.00000000      0.00000000     -0.00000000
5 1      4.08277678      4.08277678      6.80462797     -0.00000000     -0.00000000      0.00000000
14 1      5.44370237      2.72185119      8.16555356      0.00000000     -0.00000000     -0.00000000
54 1      6.80462797      1.36092559      6.80462797      0.00000000      0.00000000      0.00000000
6 1      9.52647915      4.08277678      6.80462797     -0.00000000     -0.00000000      0.00000000
62 1      8.16555356      0.00000000      8.16555356     -0.00000000      0.00000000     -0.00000000
37 1      1.36092559      4.08277678      9.52647915      0.00068655      0.00137300      0.00067901
21 1      4.08277678      1.36092559      9.52647915     -0.00274115     -0.00138551     -0.00138551
38 1      6.80462797      4.08277678      9.52647915      0.00069995      0.00139998     -0.00070769
22 1      9.52647915      1.36092559      9.52647915     -0.00000000      0.00000000     -0.00000000
27 1      0.00000000      5.44370237      0.00000000      0.00000000      0.00000000      0.00000000
43 1      2.72185119      8.16555356      0.00000000     -0.00000000     -0.00000000      0.00000000
51 1      1.36092559      6.80462797      1.36092559      0.00068655     -0.00067901     -0.00137300
3 1      4.08277678      9.52647915      1.36092559     -0.00000000     -0.00000000      0.00000000
28 1      5.44370237      5.44370237      0.00000000      0.04541196      0.02850652     -0.02850652
52 1      6.80462797      6.80462797      1.36092559      0.00069995      0.00070770     -0.00139998
4 1      9.52647915      9.52647915      1.36092559     -0.00000000     -0.00000000      0.00000000
44 1      8.16555356      8.16555356      0.00000000     -0.00000000     -0.00000000      0.00000000
11 1      0.00000000      8.16555356      2.72185119      0.00000000     -0.00000000     -0.00000000
35 1      1.36092559      9.52647915      4.08277678      0.00000000     -0.00000000     -0.00000000
59 1      2.72185119      5.44370237      2.72185119      0.04492369     -0.02807653     -0.02807653
12 1      5.44370237      8.16555356      2.72185119      0.00000000     -0.00000000     -0.00000000
19 1      4.08277678      6.80462797      4.08277678     -0.00274115      0.00138551      0.00138551
36 1      6.80462797      9.52647915      4.08277678      0.00000000     -0.00000000     -0.00000000
20 1      9.52647915      6.80462797      4.08277678     -0.00000000      0.00000000     -0.00000000
60 1      8.16555356      5.44370237      2.72185119     -0.00000000      0.00000000     -0.00000000
31 1      0.00000000      5.44370237      5.44370237      0.00000000      0.00000000      0.00000000
47 1      2.72185119      8.16555356      5.44370237     -0.00000000     -0.00000000      0.00000000
32 1      5.44370237      5.44370237      5.44370237      0.00000000      0.00000000      0.00000000
48 1      8.16555356      8.16555356      5.44370237     -0.00000000     -0.00000000      0.00000000
15 1      0.00000000      8.16555356      8.16555356      0.00000000     -0.00000000     -0.00000000
55 1      1.36092559      6.80462797      6.80462797      0.00000000      0.00000000      0.00000000
63 1      2.72185119      5.44370237      8.16555356     -0.00000000      0.00000000     -0.00000000
7 1      4.08277678      9.52647915      6.80462797     -0.00000000     -0.00000000      0.00000000
16 1      5.44370237      8.16555356      8.16555356      0.00000000     -0.00000000     -0.00000000
56 1      6.80462797      6.80462797      6.80462797      0.00000000      0.00000000      0.00000000
8 1      9.52647915      9.52647915      6.80462797     -0.00000000     -0.00000000      0.00000000
64 1      8.16555356      5.44370237      8.16555356     -0.00000000      0.00000000     -0.00000000
39 1      1.36092559      9.52647915      9.52647915      0.00000000     -0.00000000     -0.00000000
23 1      4.08277678      6.80462797      9.52647915     -0.00280494     -0.00138721      0.00138721
40 1      6.80462797      9.52647915      9.52647915      0.00000000     -0.00000000     -0.00000000
24 1      9.52647915      6.80462797      9.52647915     -0.00000000      0.00000000     -0.00000000
