mesh: [    20,    20,    20 ]
nqpoint: 770    
reciprocal_lattice:
- [  -0.18369851,   0.18369851,   0.18369851 ] # a*
- [   0.18369851,  -0.18369851,   0.18369851 ] # b*
- [   0.18369851,   0.18369851,  -0.18369851 ] # c*
natom:   2      
lattice:
- [     0.000000000000000,     2.721851186469726,     2.721851186469726 ] # a
- [     2.721851186469726,     0.000000000000000,     2.721851186469726 ] # b
- [     2.721851186469727,     2.721851186469726,     0.000000000000000 ] # c
points:
- symbol: Si # 1
  coordinates: [  0.250000000000000,  0.250000000000000,  0.250000000000000 ]
  mass: 28.085500
- symbol: Si # 2
  coordinates: [  0.000000000000000,  0.000000000000000,  0.000000000000000 ]
  mass: 28.085500

phonon:
- q-position: [    0.0250000,    0.0250000,    0.0250000 ]
  distance_from_gamma:  0.007954379
  weight: 2    
  band:
  - # 1
    frequency:     0.3455923463
  - # 2
    frequency:     0.3455923463
  - # 3
    frequency:     0.6905851408
  - # 4
    frequency:    17.7190177492
  - # 5
    frequency:    17.7265880591
  - # 6
    frequency:    17.7265880591

- q-position: [    0.0750000,    0.0250000,    0.0250000 ]
  distance_from_gamma:  0.020018081
  weight: 6    
  band:
  - # 1
    frequency:     0.8134951532
  - # 2
    frequency:     0.9630155401
  - # 3
    frequency:     1.7105636131
  - # 4
    frequency:    17.6517961317
  - # 5
    frequency:    17.6852433534
  - # 6
    frequency:    17.7012776780

- q-position: [    0.1250000,    0.0250000,    0.0250000 ]
  distance_from_gamma:  0.035275375
  weight: 6    
  band:
  - # 1
    frequency:     1.4558812307
  - # 2
    frequency:     1.6101928803
  - # 3
    frequency:     3.0261855109
  - # 4
    frequency:    17.4736740152
  - # 5
    frequency:    17.6038945894
  - # 6
    frequency:    17.6309125744

- q-position: [    0.1750000,    0.0250000,    0.0250000 ]
  distance_from_gamma:  0.050932875
  weight: 6    
  band:
  - # 1
    frequency:     2.0961633014
  - # 2
    frequency:     2.2462165126
  - # 3
    frequency:     4.3551681213
  - # 4
    frequency:    17.1895165121
  - # 5
    frequency:    17.4851094496
  - # 6
    frequency:    17.5206479887

- q-position: [    0.2250000,    0.0250000,    0.0250000 ]
  distance_from_gamma:  0.066709374
  weight: 6    
  band:
  - # 1
    frequency:     2.7055064347
  - # 2
    frequency:     2.8484015608
  - # 3
    frequency:     5.6646879132
  - # 4
    frequency:    16.8020827187
  - # 5
    frequency:    17.3378410546
  - # 6
    frequency:    17.3789826150

- q-position: [    0.2750000,    0.0250000,    0.0250000 ]
  distance_from_gamma:  0.082536661
  weight: 6    
  band:
  - # 1
    frequency:     3.2655924381
  - # 2
    frequency:     3.3981325834
  - # 3
    frequency:     6.9401436698
  - # 4
    frequency:    16.3150635556
  - # 5
    frequency:    17.1744866068
  - # 6
    frequency:    17.2176512906

- q-position: [    0.3250000,    0.0250000,    0.0250000 ]
  distance_from_gamma:  0.098390231
  weight: 6    
  band:
  - # 1
    frequency:     3.7587901850
  - # 2
    frequency:     3.8771949596
  - # 3
    frequency:     8.1693096770
  - # 4
    frequency:    15.7340090441
  - # 5
    frequency:    17.0101785894
  - # 6
    frequency:    17.0512732429

- q-position: [    0.3750000,    0.0250000,    0.0250000 ]
  distance_from_gamma:  0.114259143
  weight: 6    
  band:
  - # 1
    frequency:     4.1669572586
  - # 2
    frequency:     4.2671482501
  - # 3
    frequency:     9.3379521844
  - # 4
    frequency:    15.0683653720
  - # 5
    frequency:    16.8617818147
  - # 6
    frequency:    16.8965292114

- q-position: [    0.4250000,    0.0250000,    0.0250000 ]
  distance_from_gamma:  0.130137784
  weight: 6    
  band:
  - # 1
    frequency:     4.4722437938
  - # 2
    frequency:     4.5503472729
  - # 3
    frequency:    10.4215411877
  - # 4
    frequency:    14.3391701113
  - # 5
    frequency:    16.7461600482
  - # 6
    frequency:    16.7706180021

- q-position: [    0.4750000,    0.0250000,    0.0250000 ]
  distance_from_gamma:  0.146022982
  weight: 6    
  band:
  - # 1
    frequency:     4.6590671981
  - # 2
    frequency:     4.7120572135
  - # 3
    frequency:    11.3421858809
  - # 4
    frequency:    13.6219259750
  - # 5
    frequency:    16.6776788782
  - # 6
    frequency:    16.6888998188

- q-position: [   -0.4750000,    0.0250000,    0.0250000 ]
  distance_from_gamma:  0.156615771
  weight: 6    
  band:
  - # 1
    frequency:     4.7167154528
  - # 2
    frequency:     4.7430279159
  - # 3
    frequency:    11.6949290998
  - # 4
    frequency:    13.3202367909
  - # 5
    frequency:    16.6620695129
  - # 6
    frequency:    16.6654133954

- q-position: [   -0.4250000,    0.0250000,    0.0250000 ]
  distance_from_gamma:  0.140727325
  weight: 6    
  band:
  - # 1
    frequency:     4.6414881608
  - # 2
    frequency:     4.6416203588
  - # 3
    frequency:    11.0652498829
  - # 4
    frequency:    13.8482792364
  - # 5
    frequency:    16.6937616741
  - # 6
    frequency:    16.7110466121

- q-position: [   -0.3750000,    0.0250000,    0.0250000 ]
  distance_from_gamma:  0.124844052
  weight: 6    
  band:
  - # 1
    frequency:     4.4135569477
  - # 2
    frequency:     4.4382113320
  - # 3
    frequency:    10.0727526177
  - # 4
    frequency:    14.5871076804
  - # 5
    frequency:    16.7796584488
  - # 6
    frequency:    16.8084444377

- q-position: [   -0.3250000,    0.0250000,    0.0250000 ]
  distance_from_gamma:  0.108968214
  weight: 6    
  band:
  - # 1
    frequency:     4.0718480798
  - # 2
    frequency:     4.1178880379
  - # 3
    frequency:     8.9567368522
  - # 4
    frequency:    15.2990927433
  - # 5
    frequency:    16.9085575773
  - # 6
    frequency:    16.9451299243

- q-position: [   -0.2750000,    0.0250000,    0.0250000 ]
  distance_from_gamma:  0.093103616
  weight: 6    
  band:
  - # 1
    frequency:     3.6330169108
  - # 2
    frequency:     3.6966657307
  - # 3
    frequency:     7.7660642678
  - # 4
    frequency:    15.9380844058
  - # 5
    frequency:    17.0648524715
  - # 6
    frequency:    17.1049221758

- q-position: [   -0.2250000,    0.0250000,    0.0250000 ]
  distance_from_gamma:  0.077257180
  weight: 6    
  band:
  - # 1
    frequency:     3.1153775506
  - # 2
    frequency:     3.1926011134
  - # 3
    frequency:     6.5200079859
  - # 4
    frequency:    16.4886435266
  - # 5
    frequency:    17.2313382473
  - # 6
    frequency:    17.2706579426

- q-position: [   -0.1750000,    0.0250000,    0.0250000 ]
  distance_from_gamma:  0.061442963
  weight: 6    
  band:
  - # 1
    frequency:     2.5374600348
  - # 2
    frequency:     2.6239185631
  - # 3
    frequency:     5.2314770275
  - # 4
    frequency:    16.9430428506
  - # 5
    frequency:    17.3914909462
  - # 6
    frequency:    17.4262739925

- q-position: [   -0.1250000,    0.0250000,    0.0250000 ]
  distance_from_gamma:  0.045694427
  weight: 6    
  band:
  - # 1
    frequency:     1.9182367015
  - # 2
    frequency:     2.0083681355
  - # 3
    frequency:     3.9124876618
  - # 4
    frequency:    17.2965205073
  - # 5
    frequency:    17.5309313042
  - # 6
    frequency:    17.5580812258

- q-position: [   -0.0750000,    0.0250000,    0.0250000 ]
  distance_from_gamma:  0.030114792
  weight: 6    
  band:
  - # 1
    frequency:     1.2816812497
  - # 2
    frequency:     1.3648805008
  - # 3
    frequency:     2.5785818799
  - # 4
    frequency:    17.5459284815
  - # 5
    frequency:    17.6381924734
  - # 6
    frequency:    17.6553957068

- q-position: [   -0.0250000,    0.0250000,    0.0250000 ]
  distance_from_gamma:  0.015231476
  weight: 6    
  band:
  - # 1
    frequency:     0.6863727929
  - # 2
    frequency:     0.7269609057
  - # 3
    frequency:     1.2730865494
  - # 4
    frequency:    17.6893012034
  - # 5
    frequency:    17.7050435561
  - # 6
    frequency:    17.7107456470

- q-position: [    0.0750000,    0.0750000,    0.0250000 ]
  distance_from_gamma:  0.023863136
  weight: 6    
  band:
  - # 1
    frequency:     1.1283492410
  - # 2
    frequency:     1.1588695097
  - # 3
    frequency:     1.9486545048
  - # 4
    frequency:    17.6364935605
  - # 5
    frequency:    17.6622237509
  - # 6
    frequency:    17.6726936469

- q-position: [    0.1250000,    0.0750000,    0.0250000 ]
  distance_from_gamma:  0.035275375
  weight: 12   
  band:
  - # 1
    frequency:     1.5606393484
  - # 2
    frequency:     1.7278845121
  - # 3
    frequency:     2.9133605929
  - # 4
    frequency:    17.5063305364
  - # 5
    frequency:    17.5807050849
  - # 6
    frequency:    17.6200630109

- q-position: [    0.1750000,    0.0750000,    0.0250000 ]
  distance_from_gamma:  0.049248676
  weight: 12   
  band:
  - # 1
    frequency:     2.0994845532
  - # 2
    frequency:     2.3240157949
  - # 3
    frequency:     4.1100812613
  - # 4
    frequency:    17.2585101418
  - # 5
    frequency:    17.4655245854
  - # 6
    frequency:    17.5314300245

- q-position: [    0.2250000,    0.0750000,    0.0250000 ]
  distance_from_gamma:  0.064130251
  weight: 12   
  band:
  - # 1
    frequency:     2.6713863727
  - # 2
    frequency:     2.9090849558
  - # 3
    frequency:     5.3538618762
  - # 4
    frequency:    16.9053223308
  - # 5
    frequency:    17.3212936520
  - # 6
    frequency:    17.4075882809

- q-position: [    0.2750000,    0.0750000,    0.0250000 ]
  distance_from_gamma:  0.079411103
  weight: 12   
  band:
  - # 1
    frequency:     3.2266766567
  - # 2
    frequency:     3.4570397145
  - # 3
    frequency:     6.5930454341
  - # 4
    frequency:    16.4511388068
  - # 5
    frequency:    17.1593693425
  - # 6
    frequency:    17.2581179378

- q-position: [    0.3250000,    0.0750000,    0.0250000 ]
  distance_from_gamma:  0.094898549
  weight: 12   
  band:
  - # 1
    frequency:     3.7337651131
  - # 2
    frequency:     3.9459833993
  - # 3
    frequency:     7.8036890841
  - # 4
    frequency:    15.9011553291
  - # 5
    frequency:    16.9944429114
  - # 6
    frequency:    17.0959438058

- q-position: [    0.3750000,    0.0750000,    0.0250000 ]
  distance_from_gamma:  0.110505761
  weight: 12   
  band:
  - # 1
    frequency:     4.1668493646
  - # 2
    frequency:     4.3569190850
  - # 3
    frequency:     8.9677425445
  - # 4
    frequency:    15.2635727990
  - # 5
    frequency:    16.8431661079
  - # 6
    frequency:    16.9365097198

- q-position: [    0.4250000,    0.0750000,    0.0250000 ]
  distance_from_gamma:  0.126188306
  weight: 12   
  band:
  - # 1
    frequency:     4.5012569876
  - # 2
    frequency:     4.6743580452
  - # 3
    frequency:    10.0630174830
  - # 4
    frequency:    14.5546068132
  - # 5
    frequency:    16.7224842489
  - # 6
    frequency:    16.7966077135

- q-position: [    0.4750000,    0.0750000,    0.0250000 ]
  distance_from_gamma:  0.141921215
  weight: 12   
  band:
  - # 1
    frequency:     4.7136636165
  - # 2
    frequency:     4.8873285265
  - # 3
    frequency:    11.0380538130
  - # 4
    frequency:    13.8219809584
  - # 5
    frequency:    16.6472141626
  - # 6
    frequency:    16.6924937725

- q-position: [    0.5250000,    0.0750000,    0.0250000 ]
  distance_from_gamma:  0.157689414
  weight: 12   
  band:
  - # 1
    frequency:     4.7883905945
  - # 2
    frequency:     4.9869394473
  - # 3
    frequency:    11.6528733783
  - # 4
    frequency:    13.3035484386
  - # 5
    frequency:    16.6269133283
  - # 6
    frequency:    16.6376497043

- q-position: [   -0.4250000,    0.0750000,    0.0250000 ]
  distance_from_gamma:  0.147173920
  weight: 12   
  band:
  - # 1
    frequency:     4.7232651485
  - # 2
    frequency:     4.9646861511
  - # 3
    frequency:    11.3080625084
  - # 4
    frequency:    13.5979616533
  - # 5
    frequency:    16.6377518650
  - # 6
    frequency:    16.6659949960

- q-position: [   -0.3750000,    0.0750000,    0.0250000 ]
  distance_from_gamma:  0.131427906
  weight: 12   
  band:
  - # 1
    frequency:     4.5267907895
  - # 2
    frequency:     4.8173975308
  - # 3
    frequency:    10.4030111686
  - # 4
    frequency:    14.3063632266
  - # 5
    frequency:    16.6948520042
  - # 6
    frequency:    16.7571400331

- q-position: [   -0.3250000,    0.0750000,    0.0250000 ]
  distance_from_gamma:  0.115726415
  weight: 12   
  band:
  - # 1
    frequency:     4.2136905510
  - # 2
    frequency:     4.5504717528
  - # 3
    frequency:     9.3375101211
  - # 4
    frequency:    15.0308481144
  - # 5
    frequency:    16.8003910913
  - # 6
    frequency:    16.8895796427

- q-position: [   -0.2750000,    0.0750000,    0.0250000 ]
  distance_from_gamma:  0.100090404
  weight: 12   
  band:
  - # 1
    frequency:     3.8024024159
  - # 2
    frequency:     4.1764908129
  - # 3
    frequency:     8.1924965119
  - # 4
    frequency:    15.6939470477
  - # 5
    frequency:    16.9412648978
  - # 6
    frequency:    17.0473745035

- q-position: [   -0.2250000,    0.0750000,    0.0250000 ]
  distance_from_gamma:  0.084556205
  weight: 12   
  band:
  - # 1
    frequency:     3.3133916088
  - # 2
    frequency:     3.7124294640
  - # 3
    frequency:     6.9956823258
  - # 4
    frequency:    16.2735726015
  - # 5
    frequency:    17.1013575021
  - # 6
    frequency:    17.2133290951

- q-position: [   -0.1750000,    0.0750000,    0.0250000 ]
  distance_from_gamma:  0.069192427
  weight: 12   
  band:
  - # 1
    frequency:     2.7686182062
  - # 2
    frequency:     3.1772840866
  - # 3
    frequency:     5.7664811777
  - # 4
    frequency:    16.7595570610
  - # 5
    frequency:    17.2641671236
  - # 6
    frequency:    17.3711413175

- q-position: [   -0.1250000,    0.0750000,    0.0250000 ]
  distance_from_gamma:  0.054144336
  weight: 12   
  band:
  - # 1
    frequency:     2.1935877214
  - # 2
    frequency:     2.5904405346
  - # 3
    frequency:     4.5283352900
  - # 4
    frequency:    17.1455316982
  - # 5
    frequency:    17.4148449576
  - # 6
    frequency:    17.5067921424

- q-position: [   -0.0750000,    0.0750000,    0.0250000 ]
  distance_from_gamma:  0.039771893
  weight: 12   
  band:
  - # 1
    frequency:     1.6261522996
  - # 2
    frequency:     1.9691126392
  - # 3
    frequency:     3.3261346882
  - # 4
    frequency:    17.4257831006
  - # 5
    frequency:    17.5422907902
  - # 6
    frequency:    17.6093084232

- q-position: [   -0.0250000,    0.0750000,    0.0250000 ]
  distance_from_gamma:  0.027169376
  weight: 12   
  band:
  - # 1
    frequency:     1.1458416400
  - # 2
    frequency:     1.3243039714
  - # 3
    frequency:     2.2851967962
  - # 4
    frequency:    17.5905370643
  - # 5
    frequency:    17.6432294167
  - # 6
    frequency:    17.6715318529

- q-position: [    0.1250000,    0.1250000,    0.0250000 ]
  distance_from_gamma:  0.041839326
  weight: 6    
  band:
  - # 1
    frequency:     2.0251324839
  - # 2
    frequency:     2.0383582470
  - # 3
    frequency:     3.3560112690
  - # 4
    frequency:    17.4618799739
  - # 5
    frequency:    17.5152115239
  - # 6
    frequency:    17.5320463067

- q-position: [    0.1750000,    0.1250000,    0.0250000 ]
  distance_from_gamma:  0.052563138
  weight: 12   
  band:
  - # 1
    frequency:     2.4382571333
  - # 2
    frequency:     2.5716214621
  - # 3
    frequency:     4.2325203853
  - # 4
    frequency:    17.2700637581
  - # 5
    frequency:    17.3979165317
  - # 6
    frequency:    17.4542457929

- q-position: [    0.2250000,    0.1250000,    0.0250000 ]
  distance_from_gamma:  0.065432521
  weight: 12   
  band:
  - # 1
    frequency:     2.9211401178
  - # 2
    frequency:     3.1235799040
  - # 3
    frequency:     5.2935671255
  - # 4
    frequency:    16.9536864049
  - # 5
    frequency:    17.2545876785
  - # 6
    frequency:    17.3533539705

- q-position: [    0.2750000,    0.1250000,    0.0250000 ]
  distance_from_gamma:  0.079411103
  weight: 12   
  band:
  - # 1
    frequency:     3.4310988783
  - # 2
    frequency:     3.6630299842
  - # 3
    frequency:     6.4151800929
  - # 4
    frequency:    16.5332370873
  - # 5
    frequency:    17.0929870366
  - # 6
    frequency:    17.2240185402

- q-position: [    0.3250000,    0.1250000,    0.0250000 ]
  distance_from_gamma:  0.094005367
  weight: 12   
  band:
  - # 1
    frequency:     3.9176191159
  - # 2
    frequency:     4.1676764526
  - # 3
    frequency:     7.5452023008
  - # 4
    frequency:    16.0153133212
  - # 5
    frequency:    16.9270378539
  - # 6
    frequency:    17.0761409212

- q-position: [    0.3750000,    0.1250000,    0.0250000 ]
  distance_from_gamma:  0.108968214
  weight: 12   
  band:
  - # 1
    frequency:     4.3393836808
  - # 2
    frequency:     4.6185987178
  - # 3
    frequency:     8.6545615776
  - # 4
    frequency:    15.4077561823
  - # 5
    frequency:    16.7732427882
  - # 6
    frequency:    16.9231973363

- q-position: [    0.4250000,    0.1250000,    0.0250000 ]
  distance_from_gamma:  0.124166467
  weight: 12   
  band:
  - # 1
    frequency:     4.6649920211
  - # 2
    frequency:     4.9973167870
  - # 3
    frequency:     9.7181394709
  - # 4
    frequency:    14.7243933088
  - # 5
    frequency:    16.6486723480
  - # 6
    frequency:    16.7805863402

- q-position: [    0.4750000,    0.1250000,    0.0250000 ]
  distance_from_gamma:  0.139523219
  weight: 12   
  band:
  - # 1
    frequency:     4.8733823671
  - # 2
    frequency:     5.2841841189
  - # 3
    frequency:    10.6954145012
  - # 4
    frequency:    13.9993195399
  - # 5
    frequency:    16.5685573303
  - # 6
    frequency:    16.6640854902

- q-position: [    0.5250000,    0.1250000,    0.0250000 ]
  distance_from_gamma:  0.154991363
  weight: 12   
  band:
  - # 1
    frequency:     4.9530670273
  - # 2
    frequency:     5.4608353072
  - # 3
    frequency:    11.4449978537
  - # 4
    frequency:    13.3704540866
  - # 5
    frequency:    16.5433690973
  - # 6
    frequency:    16.5878423943

- q-position: [   -0.4250000,    0.1250000,    0.0250000 ]
  distance_from_gamma:  0.154991363
  weight: 12   
  band:
  - # 1
    frequency:     4.9014396349
  - # 2
    frequency:     5.5138166460
  - # 3
    frequency:    11.4374039028
  - # 4
    frequency:    13.3660627241
  - # 5
    frequency:    16.5602241975
  - # 6
    frequency:    16.5781285174

- q-position: [   -0.3750000,    0.1250000,    0.0250000 ]
  distance_from_gamma:  0.139523219
  weight: 12   
  band:
  - # 1
    frequency:     4.7244544673
  - # 2
    frequency:     5.4368333207
  - # 3
    frequency:    10.6741840056
  - # 4
    frequency:    13.9854698329
  - # 5
    frequency:    16.5882007591
  - # 6
    frequency:    16.6650759307

- q-position: [   -0.3250000,    0.1250000,    0.0250000 ]
  distance_from_gamma:  0.124166467
  weight: 12   
  band:
  - # 1
    frequency:     4.4354769349
  - # 2
    frequency:     5.2312199999
  - # 3
    frequency:     9.6851710080
  - # 4
    frequency:    14.7020301579
  - # 5
    frequency:    16.6660228452
  - # 6
    frequency:    16.7953043694

- q-position: [   -0.2750000,    0.1250000,    0.0250000 ]
  distance_from_gamma:  0.108968214
  weight: 12   
  band:
  - # 1
    frequency:     4.0532666109
  - # 2
    frequency:     4.9047340722
  - # 3
    frequency:     8.6140562310
  - # 4
    frequency:    15.3782020510
  - # 5
    frequency:    16.7849117416
  - # 6
    frequency:    16.9524992566

- q-position: [   -0.2250000,    0.1250000,    0.0250000 ]
  distance_from_gamma:  0.094005367
  weight: 12   
  band:
  - # 1
    frequency:     3.6001882273
  - # 2
    frequency:     4.4691255779
  - # 3
    frequency:     7.5061512244
  - # 4
    frequency:    15.9791895640
  - # 5
    frequency:    16.9317358519
  - # 6
    frequency:    17.1193208557

- q-position: [   -0.1750000,    0.1250000,    0.0250000 ]
  distance_from_gamma:  0.079411103
  weight: 12   
  band:
  - # 1
    frequency:     3.1019599876
  - # 2
    frequency:     3.9372190250
  - # 3
    frequency:     6.3945652112
  - # 4
    frequency:    16.4896116821
  - # 5
    frequency:    17.0922733000
  - # 6
    frequency:    17.2792234896

- q-position: [   -0.1250000,    0.1250000,    0.0250000 ]
  distance_from_gamma:  0.065432521
  weight: 12   
  band:
  - # 1
    frequency:     2.5903781659
  - # 2
    frequency:     3.3207873114
  - # 3
    frequency:     5.3203465397
  - # 4
    frequency:    16.8985437785
  - # 5
    frequency:    17.2542467968
  - # 6
    frequency:    17.4179165524

- q-position: [   -0.0750000,    0.1250000,    0.0250000 ]
  distance_from_gamma:  0.052563138
  weight: 12   
  band:
  - # 1
    frequency:     2.1112894633
  - # 2
    frequency:     2.6360267368
  - # 3
    frequency:     4.3442280569
  - # 4
    frequency:    17.1949659489
  - # 5
    frequency:    17.4097947255
  - # 6
    frequency:    17.5242056278

- q-position: [   -0.0250000,    0.1250000,    0.0250000 ]
  distance_from_gamma:  0.041839326
  weight: 12   
  band:
  - # 1
    frequency:     1.7370779444
  - # 2
    frequency:     1.9484144454
  - # 3
    frequency:     3.5480425863
  - # 4
    frequency:    17.3775524879
  - # 5
    frequency:    17.5446222224
  - # 6
    frequency:    17.5910821616

- q-position: [    0.1750000,    0.1750000,    0.0250000 ]
  distance_from_gamma:  0.060054242
  weight: 6    
  band:
  - # 1
    frequency:     2.9031314599
  - # 2
    frequency:     2.9056766518
  - # 3
    frequency:     4.7638570117
  - # 4
    frequency:    17.1949531417
  - # 5
    frequency:    17.2933690184
  - # 6
    frequency:    17.3124305746

- q-position: [    0.2250000,    0.1750000,    0.0250000 ]
  distance_from_gamma:  0.070401120
  weight: 12   
  band:
  - # 1
    frequency:     3.3037947366
  - # 2
    frequency:     3.4139141152
  - # 3
    frequency:     5.5696505592
  - # 4
    frequency:    16.9446598336
  - # 5
    frequency:    17.1471315666
  - # 6
    frequency:    17.2121622250

- q-position: [    0.2750000,    0.1750000,    0.0250000 ]
  distance_from_gamma:  0.082536661
  weight: 12   
  band:
  - # 1
    frequency:     3.7522066491
  - # 2
    frequency:     3.9419443969
  - # 3
    frequency:     6.5041707060
  - # 4
    frequency:    16.5629183313
  - # 5
    frequency:    16.9848367911
  - # 6
    frequency:    17.1047052432

- q-position: [    0.3250000,    0.1750000,    0.0250000 ]
  distance_from_gamma:  0.095783403
  weight: 12   
  band:
  - # 1
    frequency:     4.1983695567
  - # 2
    frequency:     4.4709830052
  - # 3
    frequency:     7.4887745515
  - # 4
    frequency:    16.0790323617
  - # 5
    frequency:    16.8175310335
  - # 6
    frequency:    16.9779418533

- q-position: [    0.3750000,    0.1750000,    0.0250000 ]
  distance_from_gamma:  0.109739680
  weight: 12   
  band:
  - # 1
    frequency:     4.5926413119
  - # 2
    frequency:     4.9771077838
  - # 3
    frequency:     8.4830518296
  - # 4
    frequency:    15.5032197288
  - # 5
    frequency:    16.6612406578
  - # 6
    frequency:    16.8412455742

- q-position: [    0.4250000,    0.1750000,    0.0250000 ]
  distance_from_gamma:  0.124166467
  weight: 12   
  band:
  - # 1
    frequency:     4.9022090779
  - # 2
    frequency:     5.4289922258
  - # 3
    frequency:     9.4589827989
  - # 4
    frequency:    14.8484712770
  - # 5
    frequency:    16.5331511158
  - # 6
    frequency:    16.7078904136

- q-position: [    0.4750000,    0.1750000,    0.0250000 ]
  distance_from_gamma:  0.138917252
  weight: 12   
  band:
  - # 1
    frequency:     5.1057530276
  - # 2
    frequency:     5.7964847177
  - # 3
    frequency:    10.3817273925
  - # 4
    frequency:    14.1418756376
  - # 5
    frequency:    16.4488929243
  - # 6
    frequency:    16.5922654306

- q-position: [    0.5250000,    0.1750000,    0.0250000 ]
  distance_from_gamma:  0.153898899
  weight: 12   
  band:
  - # 1
    frequency:     5.1899754981
  - # 2
    frequency:     6.0553386306
  - # 3
    frequency:    11.1600661758
  - # 4
    frequency:    13.4707627961
  - # 5
    frequency:    16.4195987546
  - # 6
    frequency:    16.5079936942

- q-position: [   -0.4250000,    0.1750000,    0.0250000 ]
  distance_from_gamma:  0.163983718
  weight: 12   
  band:
  - # 1
    frequency:     5.1501877488
  - # 2
    frequency:     6.1879428451
  - # 3
    frequency:    11.4282925666
  - # 4
    frequency:    13.1998417681
  - # 5
    frequency:    16.4487550522
  - # 6
    frequency:    16.4664924105

- q-position: [   -0.3750000,    0.1750000,    0.0250000 ]
  distance_from_gamma:  0.148883645
  weight: 12   
  band:
  - # 1
    frequency:     4.9909999358
  - # 2
    frequency:     6.1830204190
  - # 3
    frequency:    10.8722528947
  - # 4
    frequency:    13.6454395977
  - # 5
    frequency:    16.4712204885
  - # 6
    frequency:    16.5350053327

- q-position: [   -0.3250000,    0.1750000,    0.0250000 ]
  distance_from_gamma:  0.133970882
  weight: 12   
  band:
  - # 1
    frequency:     4.7254569432
  - # 2
    frequency:     6.0347462782
  - # 3
    frequency:     9.9874389709
  - # 4
    frequency:    14.3184473391
  - # 5
    frequency:    16.5258129601
  - # 6
    frequency:    16.6639396921

- q-position: [   -0.2750000,    0.1750000,    0.0250000 ]
  distance_from_gamma:  0.119315680
  weight: 12   
  band:
  - # 1
    frequency:     4.3730151994
  - # 2
    frequency:     5.7409952187
  - # 3
    frequency:     9.0175636794
  - # 4
    frequency:    14.9873254938
  - # 5
    frequency:    16.6237947759
  - # 6
    frequency:    16.8212026543

- q-position: [   -0.2250000,    0.1750000,    0.0250000 ]
  distance_from_gamma:  0.105025917
  weight: 12   
  band:
  - # 1
    frequency:     3.9576901561
  - # 2
    frequency:     5.3015715300
  - # 3
    frequency:     8.0392858086
  - # 4
    frequency:    15.5947986939
  - # 5
    frequency:    16.7564015832
  - # 6
    frequency:    16.9892370145

- q-position: [   -0.1750000,    0.1750000,    0.0250000 ]
  distance_from_gamma:  0.091273391
  weight: 12   
  band:
  - # 1
    frequency:     3.5076713316
  - # 2
    frequency:     4.7203556476
  - # 3
    frequency:     7.1015674323
  - # 4
    frequency:    16.1169551595
  - # 5
    frequency:    16.9134557955
  - # 6
    frequency:    17.1512454060

- q-position: [   -0.1250000,    0.1750000,    0.0250000 ]
  distance_from_gamma:  0.078341545
  weight: 12   
  band:
  - # 1
    frequency:     3.0572904190
  - # 2
    frequency:     4.0182835199
  - # 3
    frequency:     6.2423230918
  - # 4
    frequency:    16.5380833522
  - # 5
    frequency:    17.0854064559
  - # 6
    frequency:    17.2926899622

- q-position: [   -0.0750000,    0.1750000,    0.0250000 ]
  distance_from_gamma:  0.066709374
  weight: 12   
  band:
  - # 1
    frequency:     2.6514448673
  - # 2
    frequency:     3.2565595395
  - # 3
    frequency:     5.4836443741
  - # 4
    frequency:    16.8492654809
  - # 5
    frequency:    17.2604667110
  - # 6
    frequency:    17.4021893365

- q-position: [   -0.0250000,    0.1750000,    0.0250000 ]
  distance_from_gamma:  0.057175699
  weight: 12   
  band:
  - # 1
    frequency:     2.3468717609
  - # 2
    frequency:     2.5612569310
  - # 3
    frequency:     4.8417515265
  - # 4
    frequency:    17.0587705613
  - # 5
    frequency:    17.4125035025
  - # 6
    frequency:    17.4728232738

- q-position: [    0.2250000,    0.2250000,    0.0250000 ]
  distance_from_gamma:  0.078341545
  weight: 6    
  band:
  - # 1
    frequency:     3.7423107255
  - # 2
    frequency:     3.7474841890
  - # 3
    frequency:     6.1427310244
  - # 4
    frequency:    16.8345021936
  - # 5
    frequency:    17.0095992452
  - # 6
    frequency:    17.0276578675

- q-position: [    0.2750000,    0.2250000,    0.0250000 ]
  distance_from_gamma:  0.088457078
  weight: 12   
  band:
  - # 1
    frequency:     4.1281784377
  - # 2
    frequency:     4.2244969619
  - # 3
    frequency:     6.8870797862
  - # 4
    frequency:    16.5308966075
  - # 5
    frequency:    16.8438840143
  - # 6
    frequency:    16.9087270675

- q-position: [    0.3250000,    0.2250000,    0.0250000 ]
  distance_from_gamma:  0.100090404
  weight: 12   
  band:
  - # 1
    frequency:     4.5310667728
  - # 2
    frequency:     4.7424187114
  - # 3
    frequency:     7.7057559989
  - # 4
    frequency:    16.0896607228
  - # 5
    frequency:    16.6746610804
  - # 6
    frequency:    16.8011256599

- q-position: [    0.3750000,    0.2250000,    0.0250000 ]
  distance_from_gamma:  0.112772781
  weight: 12   
  band:
  - # 1
    frequency:     4.8976408746
  - # 2
    frequency:     5.2853374722
  - # 3
    frequency:     8.5475067530
  - # 4
    frequency:    15.5490791478
  - # 5
    frequency:    16.5159487362
  - # 6
    frequency:    16.6862930100

- q-position: [    0.4250000,    0.2250000,    0.0250000 ]
  distance_from_gamma:  0.126188306
  weight: 12   
  band:
  - # 1
    frequency:     5.1911415409
  - # 2
    frequency:     5.8119109641
  - # 3
    frequency:     9.3847332539
  - # 4
    frequency:    14.9257369366
  - # 5
    frequency:    16.3848178743
  - # 6
    frequency:    16.5717921317

- q-position: [    0.4750000,    0.2250000,    0.0250000 ]
  distance_from_gamma:  0.140126565
  weight: 12   
  band:
  - # 1
    frequency:     5.3882733623
  - # 2
    frequency:     6.2753731624
  - # 3
    frequency:    10.1920939269
  - # 4
    frequency:    14.2435227928
  - # 5
    frequency:    16.2972495104
  - # 6
    frequency:    16.4696462766

- q-position: [    0.5250000,    0.2250000,    0.0250000 ]
  distance_from_gamma:  0.154446097
  weight: 12   
  band:
  - # 1
    frequency:     5.4740176156
  - # 2
    frequency:     6.6365709766
  - # 3
    frequency:    10.9112429169
  - # 4
    frequency:    13.5639775669
  - # 5
    frequency:    16.2649012547
  - # 6
    frequency:    16.3920658164

- q-position: [    0.5750000,    0.2250000,    0.0250000 ]
  distance_from_gamma:  0.169050042
  weight: 12   