mesh: [    20,    20,    20 ]
nqpoint: 770    
reciprocal_lattice:
- [  -0.18369851,   0.18369851,   0.18369851 ] # a*
- [   0.18369851,  -0.18369851,   0.18369851 ] # b*
- [   0.18369851,   0.18369851,  -0.18369851 ] # c*
natom:   2      
lattice:
- [     0.000000000000000,     2.721851186469726,     2.721851186469726 ] # a
- [     2.721851186469726,     0.000000000000000,     2.721851186469726 ] # b
- [     2.721851186469727,     2.721851186469726,     0.000000000000000 ] # c
points:
- symbol: Si # 1
  coordinates: [  0.250000000000000,  0.250000000000000,  0.250000000000000 ]
  mass: 28.085500
- symbol: Si # 2
  coordinates: [  0.000000000000000,  0.000000000000000,  0.000000000000000 ]
  mass: 28.085500

phonon:
- q-position: [    0.0250000,    0.0250000,    0.0250000 ]
  distance_from_gamma:  0.007954379
  weight: 2    
  band:
  - # 1
    frequency:     0.3428444553
  - # 2
    frequency:     0.3433785073
  - # 3
    frequency:     0.6871510011
  - # 4
    frequency:    17.6327626159
  - # 5
    frequency:    17.6401909005
  - # 6
    frequency:    17.6401961010

- q-position: [    0.0750000,    0.0250000,    0.0250000 ]
  distance_from_gamma:  0.020018081
  weight: 6    
  band:
  - # 1
    frequency:     0.8075549428
  - # 2
    frequency:     0.9553608909
  - # 3
    frequency:     1.7017696918
  - # 4
    frequency:    17.5666911884
  - # 5
    frequency:    17.5998380392
  - # 6
    frequency:    17.6152325089

- q-position: [    0.1250000,    0.0250000,    0.0250000 ]
  distance_from_gamma:  0.035275375
  weight: 6    
  band:
  - # 1
    frequency:     1.4442398470
  - # 2
    frequency:     1.5958740777
  - # 3
    frequency:     3.0113546279
  - # 4
    frequency:    17.3915592499
  - # 5
    frequency:    17.5203783384
  - # 6
    frequency:    17.5462921180

- q-position: [    0.1750000,    0.0250000,    0.0250000 ]
  distance_from_gamma:  0.050932875
  weight: 6    
  band:
  - # 1
    frequency:     2.0779570308
  - # 2
    frequency:     2.2243800767
  - # 3
    frequency:     4.3351882930
  - # 4
    frequency:    17.1113787516
  - # 5
    frequency:    17.4047379993
  - # 6
    frequency:    17.4387254865

- q-position: [    0.2250000,    0.0250000,    0.0250000 ]
  distance_from_gamma:  0.066709374
  weight: 6    
  band:
  - # 1
    frequency:     2.6798415795
  - # 2
    frequency:     2.8183794286
  - # 3
    frequency:     5.6400444231
  - # 4
    frequency:    16.7282088685
  - # 5
    frequency:    17.2619452920
  - # 6
    frequency:    17.3011309718

- q-position: [    0.2750000,    0.0250000,    0.0250000 ]
  distance_from_gamma:  0.082536661
  weight: 6    
  band:
  - # 1
    frequency:     3.2317678435
  - # 2
    frequency:     3.3595877786
  - # 3
    frequency:     6.9102867828
  - # 4
    frequency:    16.2454460393
  - # 5
    frequency:    17.1041532155
  - # 6
    frequency:    17.1450763053

- q-position: [    0.3250000,    0.0250000,    0.0250000 ]
  distance_from_gamma:  0.098390231
  weight: 6    
  band:
  - # 1
    frequency:     3.7165850410
  - # 2
    frequency:     3.8303755399
  - # 3
    frequency:     8.1324372387
  - # 4
    frequency:    15.6690399398
  - # 5
    frequency:    16.9458925455
  - # 6
    frequency:    16.9846871892

- q-position: [    0.3750000,    0.0250000,    0.0250000 ]
  distance_from_gamma:  0.114259143
  weight: 6    
  band:
  - # 1
    frequency:     4.1168492973
  - # 2
    frequency:     4.2130858314
  - # 3
    frequency:     9.2910568777
  - # 4
    frequency:    15.0097052248
  - # 5
    frequency:    16.8031931522
  - # 6
    frequency:    16.8358978158

- q-position: [    0.4250000,    0.0250000,    0.0250000 ]
  distance_from_gamma:  0.130137784
  weight: 6    
  band:
  - # 1
    frequency:     4.4155002926
  - # 2
    frequency:     4.4908938625
  - # 3
    frequency:    10.3600452518
  - # 4
    frequency:    14.2910213156
  - # 5
    frequency:    16.6920707296
  - # 6
    frequency:    16.7150691310

- q-position: [    0.4750000,    0.0250000,    0.0250000 ]
  distance_from_gamma:  0.146022982
  weight: 6    
  band:
  - # 1
    frequency:     4.5976975833
  - # 2
    frequency:     4.6497201733
  - # 3
    frequency:    11.2575717625
  - # 4
    frequency:    13.5938486491
  - # 5
    frequency:    16.6262332840
  - # 6
    frequency:    16.6368074367

- q-position: [   -0.4750000,    0.0250000,    0.0250000 ]
  distance_from_gamma:  0.156615771
  weight: 6    
  band:
  - # 1
    frequency:     4.6533018272
  - # 2
    frequency:     4.6806439949
  - # 3
    frequency:    11.5925336531
  - # 4
    frequency:    13.3091057936
  - # 5
    frequency:    16.6112758668
  - # 6
    frequency:    16.6143991569

- q-position: [   -0.4250000,    0.0250000,    0.0250000 ]
  distance_from_gamma:  0.140727325
  weight: 6    
  band:
  - # 1
    frequency:     4.5790474998
  - # 2
    frequency:     4.5818302448
  - # 3
    frequency:    10.9890307270
  - # 4
    frequency:    13.8126872416
  - # 5
    frequency:    16.6418924495
  - # 6
    frequency:    16.6582133491

- q-position: [   -0.3750000,    0.0250000,    0.0250000 ]
  distance_from_gamma:  0.124844052
  weight: 6    
  band:
  - # 1
    frequency:     4.3589713898
  - # 2
    frequency:     4.3793233572
  - # 3
    frequency:    10.0161518251
  - # 4
    frequency:    14.5355002109
  - # 5
    frequency:    16.7244902209
  - # 6
    frequency:    16.7518002573

- q-position: [   -0.3250000,    0.0250000,    0.0250000 ]
  distance_from_gamma:  0.108968214
  weight: 6    
  band:
  - # 1
    frequency:     4.0239966834
  - # 2
    frequency:     4.0651232464
  - # 3
    frequency:     8.9130561833
  - # 4
    frequency:    15.2387205561
  - # 5
    frequency:    16.8483809360
  - # 6
    frequency:    16.8832106611

- q-position: [   -0.2750000,    0.0250000,    0.0250000 ]
  distance_from_gamma:  0.093103616
  weight: 6    
  band:
  - # 1
    frequency:     3.5927714592
  - # 2
    frequency:     3.6517513112
  - # 3
    frequency:     7.7314042410
  - # 4
    frequency:    15.8720515351
  - # 5
    frequency:    16.9987452672
  - # 6
    frequency:    17.0370065001

- q-position: [   -0.2250000,    0.0250000,    0.0250000 ]
  distance_from_gamma:  0.077257180
  weight: 6    
  band:
  - # 1
    frequency:     3.0828876199
  - # 2
    frequency:     3.1563916377
  - # 3
    frequency:     6.4917565810
  - # 4
    frequency:    16.4180610111
  - # 5
    frequency:    17.1592600637
  - # 6
    frequency:    17.1968572477

- q-position: [   -0.1750000,    0.0250000,    0.0250000 ]
  distance_from_gamma:  0.061442963
  weight: 6    
  band:
  - # 1
    frequency:     2.5123690321
  - # 2
    frequency:     2.5964254931
  - # 3
    frequency:     5.2082271360
  - # 4
    frequency:    16.8680812020
  - # 5
    frequency:    17.3141584206
  - # 6
    frequency:    17.3474302242

- q-position: [   -0.1250000,    0.0250000,    0.0250000 ]
  distance_from_gamma:  0.045694427
  weight: 6    
  band:
  - # 1
    frequency:     1.8999683484
  - # 2
    frequency:     1.9889651106
  - # 3
    frequency:     3.8940470289
  - # 4
    frequency:    17.2172179037
  - # 5
    frequency:    17.4495216043
  - # 6
    frequency:    17.4754839907

- q-position: [   -0.0750000,    0.0250000,    0.0250000 ]
  distance_from_gamma:  0.030114792
  weight: 6    
  band:
  - # 1
    frequency:     1.2696899909
  - # 2
    frequency:     1.3526096380
  - # 3
    frequency:     2.5656345757
  - # 4
    frequency:    17.4627963380
  - # 5
    frequency:    17.5540017982
  - # 6
    frequency:    17.5704324928

- q-position: [   -0.0250000,    0.0250000,    0.0250000 ]
  distance_from_gamma:  0.015231476
  weight: 6    
  band:
  - # 1
    frequency:     0.6802193474
  - # 2
    frequency:     0.7208007432
  - # 3
    frequency:     1.2664211984
  - # 4
    frequency:    17.6035887633
  - # 5
    frequency:    17.6192473948
  - # 6
    frequency:    17.6246479407

- q-position: [    0.0750000,    0.0750000,    0.0250000 ]
  distance_from_gamma:  0.023863136
  weight: 6    
  band:
  - # 1
    frequency:     1.1192192500
  - # 2
    frequency:     1.1491898517
  - # 3
    frequency:     1.9395741338
  - # 4
    frequency:    17.5513805942
  - # 5
    frequency:    17.5772751677
  - # 6
    frequency:    17.5870953350

- q-position: [    0.1250000,    0.0750000,    0.0250000 ]
  distance_from_gamma:  0.035275375
  weight: 12   
  band:
  - # 1
    frequency:     1.5480559453
  - # 2
    frequency:     1.7128641078
  - # 3
    frequency:     2.8996993872
  - # 4
    frequency:    17.4232960488
  - # 5
    frequency:    17.4976380404
  - # 6
    frequency:    17.5352224536

- q-position: [    0.1750000,    0.0750000,    0.0250000 ]
  distance_from_gamma:  0.049248676
  weight: 12   
  band:
  - # 1
    frequency:     2.0820989970
  - # 2
    frequency:     2.3019717798
  - # 3
    frequency:     4.0914691784
  - # 4
    frequency:    17.1792456788
  - # 5
    frequency:    17.3852926248
  - # 6
    frequency:    17.4483064609

- q-position: [    0.2250000,    0.0750000,    0.0250000 ]
  distance_from_gamma:  0.064130251
  weight: 12   
  band:
  - # 1
    frequency:     2.6479043919
  - # 2
    frequency:     2.8789726819
  - # 3
    frequency:     5.3307946011
  - # 4
    frequency:    16.8303726588
  - # 5
    frequency:    17.2451702600
  - # 6
    frequency:    17.3275094269

- q-position: [    0.2750000,    0.0750000,    0.0250000 ]
  distance_from_gamma:  0.079411103
  weight: 12   
  band:
  - # 1
    frequency:     3.1958279416
  - # 2
    frequency:     3.4185542589
  - # 3
    frequency:     6.5652888300
  - # 4
    frequency:    16.3805218968
  - # 5
    frequency:    17.0884899568
  - # 6
    frequency:    17.1824053548

- q-position: [    0.3250000,    0.0750000,    0.0250000 ]
  distance_from_gamma:  0.094898549
  weight: 12   
  band:
  - # 1
    frequency:     3.6944491515
  - # 2
    frequency:     3.8997039013
  - # 3
    frequency:     7.7698302296
  - # 4
    frequency:    15.8349771653
  - # 5
    frequency:    16.9294261321
  - # 6
    frequency:    17.0256122248

- q-position: [    0.3750000,    0.0750000,    0.0250000 ]
  distance_from_gamma:  0.110505761
  weight: 12   
  band:
  - # 1
    frequency:     4.1183999140
  - # 2
    frequency:     4.3044007281
  - # 3
    frequency:     8.9251931098
  - # 4
    frequency:    15.2028373034
  - # 5
    frequency:    16.7838209579
  - # 6
    frequency:    16.8719923263

- q-position: [    0.4250000,    0.0750000,    0.0250000 ]
  distance_from_gamma:  0.126188306
  weight: 12   
  band:
  - # 1
    frequency:     4.4440023553
  - # 2
    frequency:     4.6177435198
  - # 3
    frequency:    10.0079582004
  - # 4
    frequency:    14.5022683850
  - # 5
    frequency:    16.6677349156
  - # 6
    frequency:    16.7375911897

- q-position: [    0.4750000,    0.0750000,    0.0250000 ]
  distance_from_gamma:  0.141921215
  weight: 12   
  band:
  - # 1
    frequency:     4.6499847563
  - # 2
    frequency:     4.8281679203
  - # 3
    frequency:    10.9640079037
  - # 4
    frequency:    13.7850430102
  - # 5
    frequency:    16.5952712425
  - # 6
    frequency:    16.6378885826

- q-position: [    0.5250000,    0.0750000,    0.0250000 ]
  distance_from_gamma:  0.157689414
  weight: 12   
  band:
  - # 1
    frequency:     4.7227575006
  - # 2
    frequency:     4.9257530855
  - # 3
    frequency:    11.5535137910
  - # 4
    frequency:    13.2902529582
  - # 5
    frequency:    16.5756364659
  - # 6
    frequency:    16.5856560309

- q-position: [   -0.4250000,    0.0750000,    0.0250000 ]
  distance_from_gamma:  0.147173920
  weight: 12   
  band:
  - # 1
    frequency:     4.6601515974
  - # 2
    frequency:     4.9024579777
  - # 3
    frequency:    11.2242298929
  - # 4
    frequency:    13.5700786710
  - # 5
    frequency:    16.5862836402
  - # 6
    frequency:    16.6130491241

- q-position: [   -0.3750000,    0.0750000,    0.0250000 ]
  distance_from_gamma:  0.131427906
  weight: 12   
  band:
  - # 1
    frequency:     4.4693610524
  - # 2
    frequency:     4.7562145852
  - # 3
    frequency:    10.3411621511
  - # 4
    frequency:    14.2596980036
  - # 5
    frequency:    16.6414868146
  - # 6
    frequency:    16.7006860131

- q-position: [   -0.3250000,    0.0750000,    0.0250000 ]
  distance_from_gamma:  0.115726415
  weight: 12   
  band:
  - # 1
    frequency:     4.1637789832
  - # 2
    frequency:     4.4929042352
  - # 3
    frequency:     9.2899596861
  - # 4
    frequency:    14.9741219438
  - # 5
    frequency:    16.7431116124
  - # 6
    frequency:    16.8281732360

- q-position: [   -0.2750000,    0.0750000,    0.0250000 ]
  distance_from_gamma:  0.100090404
  weight: 12   
  band:
  - # 1
    frequency:     3.7607212558
  - # 2
    frequency:     4.1249024066
  - # 3
    frequency:     8.1549270532
  - # 4
    frequency:    15.6310127055
  - # 5
    frequency:    16.8787173650
  - # 6
    frequency:    16.9802503295

- q-position: [   -0.2250000,    0.0750000,    0.0250000 ]
  distance_from_gamma:  0.084556205
  weight: 12   
  band:
  - # 1
    frequency:     3.2797670008
  - # 2
    frequency:     3.6685289143
  - # 3
    frequency:     6.9651503642
  - # 4
    frequency:    16.2058591855
  - # 5
    frequency:    17.0330598006
  - # 6
    frequency:    17.1404833120

- q-position: [   -0.1750000,    0.0750000,    0.0250000 ]
  distance_from_gamma:  0.069192427
  weight: 12   
  band:
  - # 1
    frequency:     2.7422982544
  - # 2
    frequency:     3.1419177969
  - # 3
    frequency:     5.7411208954
  - # 4
    frequency:    16.6873043721
  - # 5
    frequency:    17.1904686408
  - # 6
    frequency:    17.2932784279

- q-position: [   -0.1250000,    0.0750000,    0.0250000 ]
  distance_from_gamma:  0.054144336
  weight: 12   
  band:
  - # 1
    frequency:     2.1735913672
  - # 2
    frequency:     2.5635962556
  - # 3
    frequency:     4.5074254019
  - # 4
    frequency:    17.0686635364
  - # 5
    frequency:    17.3366697029
  - # 6
    frequency:    17.4251046658

- q-position: [   -0.0750000,    0.0750000,    0.0250000 ]
  distance_from_gamma:  0.039771893
  weight: 12   
  band:
  - # 1
    frequency:     1.6115404183
  - # 2
    frequency:     1.9501056625
  - # 3
    frequency:     3.3098100754
  - # 4
    frequency:    17.3446322605
  - # 5
    frequency:    17.4607551350
  - # 6
    frequency:    17.5251541424

- q-position: [   -0.0250000,    0.0750000,    0.0250000 ]
  distance_from_gamma:  0.027169376
  weight: 12   
  band:
  - # 1
    frequency:     1.1356233332
  - # 2
    frequency:     1.3121857643
  - # 3
    frequency:     2.2734137427
  - # 4
    frequency:    17.5065476338
  - # 5
    frequency:    17.5590570585
  - # 6
    frequency:    17.5861334951

- q-position: [    0.1250000,    0.1250000,    0.0250000 ]
  distance_from_gamma:  0.041839326
  weight: 6    
  band:
  - # 1
    frequency:     2.0069516286
  - # 2
    frequency:     2.0197000708
  - # 3
    frequency:     3.3412896021
  - # 4
    frequency:    17.3787482287
  - # 5
    frequency:    17.4334540314
  - # 6
    frequency:    17.4489839179

- q-position: [    0.1750000,    0.1250000,    0.0250000 ]
  distance_from_gamma:  0.052563138
  weight: 12   
  band:
  - # 1
    frequency:     2.4160306555
  - # 2
    frequency:     2.5470934240
  - # 3
    frequency:     4.2143697710
  - # 4
    frequency:    17.1899417164
  - # 5
    frequency:    17.3186943630
  - # 6
    frequency:    17.3722113479

- q-position: [    0.2250000,    0.1250000,    0.0250000 ]
  distance_from_gamma:  0.065432521
  weight: 12   
  band:
  - # 1
    frequency:     2.8938119046
  - # 2
    frequency:     3.0920602909
  - # 3
    frequency:     5.2715519796
  - # 4
    frequency:    16.8779690379
  - # 5
    frequency:    17.1789696144
  - # 6
    frequency:    17.2730991005

- q-position: [    0.2750000,    0.1250000,    0.0250000 ]
  distance_from_gamma:  0.079411103
  weight: 12   
  band:
  - # 1
    frequency:     3.3967130191
  - # 2
    frequency:     3.6245797470
  - # 3
    frequency:     6.3891153269
  - # 4
    frequency:    16.4620876632
  - # 5
    frequency:    17.0221162578
  - # 6
    frequency:    17.1468022275

- q-position: [    0.3250000,    0.1250000,    0.0250000 ]
  distance_from_gamma:  0.094005367
  weight: 12   
  band:
  - # 1
    frequency:     3.8737548672
  - # 2
    frequency:     4.1237718742
  - # 3
    frequency:     7.5139759822
  - # 4
    frequency:    15.9486626871
  - # 5
    frequency:    16.8616281163
  - # 6
    frequency:    17.0031101307

- q-position: [    0.3750000,    0.1250000,    0.0250000 ]
  distance_from_gamma:  0.108968214
  weight: 12   
  band:
  - # 1
    frequency:     4.2846726602
  - # 2
    frequency:     4.5709889068
  - # 3
    frequency:     8.6159508653
  - # 4
    frequency:    15.3460213067
  - # 5
    frequency:    16.7132478552
  - # 6
    frequency:    16.8551416323

- q-position: [    0.4250000,    0.1250000,    0.0250000 ]
  distance_from_gamma:  0.124166467
  weight: 12   
  band:
  - # 1
    frequency:     4.6007731343
  - # 2
    frequency:     4.9465151297
  - # 3
    frequency:     9.6689543391
  - # 4
    frequency:    14.6693759043
  - # 5
    frequency:    16.5931569353
  - # 6
    frequency:    16.7177413179

- q-position: [    0.4750000,    0.1250000,    0.0250000 ]
  distance_from_gamma:  0.139523219
  weight: 12   
  band:
  - # 1
    frequency:     4.8033883304
  - # 2
    frequency:     5.2296874680
  - # 3
    frequency:    10.6309717682
  - # 4
    frequency:    13.9556429800
  - # 5
    frequency:    16.5158428803
  - # 6
    frequency:    16.6060031565

- q-position: [    0.5250000,    0.1250000,    0.0250000 ]
  distance_from_gamma:  0.154991363
  weight: 12   
  band:
  - # 1
    frequency:     4.8818672977
  - # 2
    frequency:     5.4023753504
  - # 3
    frequency:    11.3580242593
  - # 4
    frequency:    13.3469403392
  - # 5
    frequency:    16.4913934921
  - # 6
    frequency:    16.5333323685

- q-position: [   -0.4250000,    0.1250000,    0.0250000 ]
  distance_from_gamma:  0.154991363
  weight: 12   
  band:
  - # 1
    frequency:     4.8332500202
  - # 2
    frequency:     5.4520878737
  - # 3
    frequency:    11.3496408367
  - # 4
    frequency:    13.3436115756
  - # 5
    frequency:    16.5075925152
  - # 6
    frequency:    16.5246795743

- q-position: [   -0.3750000,    0.1250000,    0.0250000 ]
  distance_from_gamma:  0.139523219
  weight: 12   
  band:
  - # 1
    frequency:     4.6625133322
  - # 2
    frequency:     5.3735524859
  - # 3
    frequency:    10.6083493854
  - # 4
    frequency:    13.9440273585
  - # 5
    frequency:    16.5350298632
  - # 6
    frequency:    16.6085781850

- q-position: [   -0.3250000,    0.1250000,    0.0250000 ]
  distance_from_gamma:  0.124166467
  weight: 12   
  band:
  - # 1
    frequency:     4.3817803935
  - # 2
    frequency:     5.1687979803
  - # 3
    frequency:     9.6345541013
  - # 4
    frequency:    14.6498928176
  - # 5
    frequency:    16.6102109854
  - # 6
    frequency:    16.7343946676

- q-position: [   -0.2750000,    0.1250000,    0.0250000 ]
  distance_from_gamma:  0.108968214
  weight: 12   
  band:
  - # 1
    frequency:     4.0085459525
  - # 2
    frequency:     4.8457931314
  - # 3
    frequency:     8.5741476343
  - # 4
    frequency:    15.3197873183
  - # 5
    frequency:    16.7248299534
  - # 6
    frequency:    16.8864426315

- q-position: [   -0.2250000,    0.1250000,    0.0250000 ]
  distance_from_gamma:  0.094005367
  weight: 12   
  band:
  - # 1
    frequency:     3.5640715362
  - # 2
    frequency:     4.4160455544
  - # 3
    frequency:     7.4738096023
  - # 4
    frequency:    15.9160473873
  - # 5
    frequency:    16.8665915117
  - # 6
    frequency:    17.0480177764

- q-position: [   -0.1750000,    0.1250000,    0.0250000 ]
  distance_from_gamma:  0.079411103
  weight: 12   
  band:
  - # 1
    frequency:     3.0732776265
  - # 2
    frequency:     3.8918132406
  - # 3
    frequency:     6.3674274858
  - # 4
    frequency:    16.4218586583
  - # 5
    frequency:    17.0221352572
  - # 6
    frequency:    17.2031967777

- q-position: [   -0.1250000,    0.1250000,    0.0250000 ]
  distance_from_gamma:  0.065432521
  weight: 12   
  band:
  - # 1
    frequency:     2.5675506476
  - # 2
    frequency:     3.2841221919
  - # 3
    frequency:     5.2969189338
  - # 4
    frequency:    16.8258713181
  - # 5
    frequency:    17.1797737985
  - # 6
    frequency:    17.3381711925

- q-position: [   -0.0750000,    0.1250000,    0.0250000 ]
  distance_from_gamma:  0.052563138
  weight: 12   
  band:
  - # 1
    frequency:     2.0926877616
  - # 2
    frequency:     2.6083242890
  - # 3
    frequency:     4.3238531515
  - # 4
    frequency:    17.1176553382
  - # 5
    frequency:    17.3316496649
  - # 6
    frequency:    17.4419684540

- q-position: [   -0.0250000,    0.1250000,    0.0250000 ]
  distance_from_gamma:  0.041839326
  weight: 12   
  band:
  - # 1
    frequency:     1.7211250274
  - # 2
    frequency:     1.9289518525
  - # 3
    frequency:     3.5305167619
  - # 4
    frequency:    17.2971375635
  - # 5
    frequency:    17.4630181562
  - # 6
    frequency:    17.5075018528

- q-position: [    0.1750000,    0.1750000,    0.0250000 ]
  distance_from_gamma:  0.060054242
  weight: 6    
  band:
  - # 1
    frequency:     2.8743539292
  - # 2
    frequency:     2.8764462128
  - # 3
    frequency:     4.7444945113
  - # 4
    frequency:    17.1144372774
  - # 5
    frequency:    17.2160424666
  - # 6
    frequency:    17.2335696170

- q-position: [    0.2250000,    0.1750000,    0.0250000 ]
  distance_from_gamma:  0.070401120
  weight: 12   
  band:
  - # 1
    frequency:     3.2699645442
  - # 2
    frequency:     3.3782664916
  - # 3
    frequency:     5.5478883675
  - # 4
    frequency:    16.8680314426
  - # 5
    frequency:    17.0726693141
  - # 6
    frequency:    17.1344225606

- q-position: [    0.2750000,    0.1750000,    0.0250000 ]
  distance_from_gamma:  0.082536661
  weight: 12   
  band:
  - # 1
    frequency:     3.7115565890
  - # 2
    frequency:     3.9002754684
  - # 3
    frequency:     6.4794231207
  - # 4
    frequency:    16.4912121273
  - # 5
    frequency:    16.9143537126
  - # 6
    frequency:    17.0285729134

- q-position: [    0.3250000,    0.1750000,    0.0250000 ]
  distance_from_gamma:  0.095783403
  weight: 12   
  band:
  - # 1
    frequency:     4.1480329250
  - # 2
    frequency:     4.4253244854
  - # 3
    frequency:     7.4600387380
  - # 4
    frequency:    16.0120973794
  - # 5
    frequency:    16.7518616412
  - # 6
    frequency:    16.9045455183

- q-position: [    0.3750000,    0.1750000,    0.0250000 ]
  distance_from_gamma:  0.109739680
  weight: 12   
  band:
  - # 1
    frequency:     4.5314124964
  - # 2
    frequency:     4.9289534127
  - # 3
    frequency:     8.4483062351
  - # 4
    frequency:    15.4410324817
  - # 5
    frequency:    16.6005166981
  - # 6
    frequency:    16.7715240315

- q-position: [    0.4250000,    0.1750000,    0.0250000 ]
  distance_from_gamma:  0.124166467
  weight: 12   
  band:
  - # 1
    frequency:     4.8315887571
  - # 2
    frequency:     5.3784312652
  - # 3
    frequency:     9.4153807871
  - # 4
    frequency:    14.7918683287
  - # 5
    frequency:    16.4766346718
  - # 6
    frequency:    16.6424478896

- q-position: [    0.4750000,    0.1750000,    0.0250000 ]
  distance_from_gamma:  0.138917252
  weight: 12   
  band:
  - # 1
    frequency:     5.0291373436
  - # 2
    frequency:     5.7428473982
  - # 3
    frequency:    10.3257728419
  - # 4
    frequency:    14.0935512064
  - # 5
    frequency:    16.3950886544
  - # 6
    frequency:    16.5312151277

- q-position: [    0.5250000,    0.1750000,    0.0250000 ]
  distance_from_gamma:  0.153898899
  weight: 12   
  band:
  - # 1
    frequency:     5.1116834875
  - # 2
    frequency:     5.9978686857
  - # 3
    frequency:    11.0868748459
  - # 4
    frequency:    13.4366559718
  - # 5
    frequency:    16.3666170282
  - # 6
    frequency:    16.4507884928

- q-position: [   -0.4250000,    0.1750000,    0.0250000 ]
  distance_from_gamma:  0.163983718
  weight: 12   
  band:
  - # 1
    frequency:     5.0745613297
  - # 2
    frequency:     6.1263913978
  - # 3
    frequency:    11.3442445884
  - # 4
    frequency:    13.1762055636
  - # 5
    frequency:    16.3947956289
  - # 6
    frequency:    16.4117782918

- q-position: [   -0.3750000,    0.1750000,    0.0250000 ]
  distance_from_gamma:  0.148883645
  weight: 12   
  band:
  - # 1
    frequency:     4.9216543818
  - # 2
    frequency:     6.1180616176
  - # 3
    frequency:    10.8051136524
  - # 4
    frequency:    13.6076405074
  - # 5
    frequency:    16.4172523860
  - # 6
    frequency:    16.4783778296

- q-position: [   -0.3250000,    0.1750000,    0.0250000 ]
  distance_from_gamma:  0.133970882
  weight: 12   
  band:
  - # 1
    frequency:     4.6648043247
  - # 2
    frequency:     5.9680470498
  - # 3
    frequency:     9.9355479664
  - # 4
    frequency:    14.2704130514
  - # 5
    frequency:    16.4703761993
  - # 6
    frequency:    16.6036804143

- q-position: [   -0.2750000,    0.1750000,    0.0250000 ]
  distance_from_gamma:  0.119315680
  weight: 12   
  band:
  - # 1
    frequency:     4.3220791513
  - # 2
    frequency:     5.6750046860
  - # 3
    frequency:     8.9766589884
  - # 4
    frequency:    14.9336734762
  - # 5
    frequency:    16.5651725768
  - # 6
    frequency:    16.7566858215

- q-position: [   -0.2250000,    0.1750000,    0.0250000 ]
  distance_from_gamma:  0.105025917
  weight: 12   
  band:
  - # 1
    frequency:     3.9161595290
  - # 2
    frequency:     5.2392368868
  - # 3
    frequency:     8.0060554867
  - # 4
    frequency:    15.5369852981
  - # 5
    frequency:    16.6936854529
  - # 6
    frequency:    16.9203055796

- q-position: [   -0.1750000,    0.1750000,    0.0250000 ]
  distance_from_gamma:  0.091273391
  weight: 12   
  band:
  - # 1
    frequency:     3.4741453246
  - # 2
    frequency:     4.6647321187
  - # 3
    frequency:     7.0729161062
  - # 4
    frequency:    16.0547159635
  - # 5
    frequency:    16.8466305310
  - # 6
    frequency:    17.0782155474

- q-position: [   -0.1250000,    0.1750000,    0.0250000 ]
  distance_from_gamma:  0.078341545
  weight: 12   
  band:
  - # 1
    frequency:     3.0296781617
  - # 2
    frequency:     3.9716940317
  - # 3
    frequency:     6.2159779540
  - # 4
    frequency:    16.4706734216
  - # 5
    frequency:    17.0149686492
  - # 6
    frequency:    17.2162917412

- q-position: [   -0.0750000,    0.1750000,    0.0250000 ]
  distance_from_gamma:  0.066709374
  weight: 12   
  band:
  - # 1
    frequency:     2.6274645247
  - # 2
    frequency:     3.2197001933
  - # 3
    frequency:     5.4589338033
  - # 4
    frequency:    16.7768194908
  - # 5
    frequency:    17.1865895147
  - # 6
    frequency:    17.3233940660

- q-position: [   -0.0250000,    0.1750000,    0.0250000 ]
  distance_from_gamma:  0.057175699
  weight: 12   
  band:
  - # 1
    frequency:     2.3244833074
  - # 2
    frequency:     2.5334051920
  - # 3
    frequency:     4.8190180360
  - # 4
    frequency:    16.9827957480
  - # 5
    frequency:    17.3348560812
  - # 6
    frequency:    17.3925817683

- q-position: [    0.2250000,    0.2250000,    0.0250000 ]
  distance_from_gamma:  0.078341545
  weight: 6    
  band:
  - # 1
    frequency:     3.7009285301
  - # 2
    frequency:     3.7065934310
  - # 3
    frequency:     6.1199341648
  - # 4
    frequency:    16.7574362512
  - # 5
    frequency:    16.9373152027
  - # 6
    frequency:    16.9540618966

- q-position: [    0.2750000,    0.2250000,    0.0250000 ]
  distance_from_gamma:  0.088457078
  weight: 12   
  band:
  - # 1
    frequency:     4.0812067793
  - # 2
    frequency:     4.1764841204
  - # 3
    frequency:     6.8626394009
  - # 4
    frequency:    16.4583113742
  - # 5
    frequency:    16.7744718211
  - # 6
    frequency:    16.8363203872

- q-position: [    0.3250000,    0.2250000,    0.0250000 ]
  distance_from_gamma:  0.100090404
  weight: 12   
  band:
  - # 1
    frequency:     4.4755883304
  - # 2
    frequency:     4.6896506295
  - # 3
    frequency:     7.6788743376
  - # 4
    frequency:    16.0223402652
  - # 5
    frequency:    16.6091347030
  - # 6
    frequency:    16.7299918677

- q-position: [    0.3750000,    0.2250000,    0.0250000 ]
  distance_from_gamma:  0.112772781
  weight: 12   
  band:
  - # 1
    frequency:     4.8318664509
  - # 2
    frequency:     5.2299984515
  - # 3
    frequency:     8.5164854839
  - # 4
    frequency:    15.4866608421
  - # 5
    frequency:    16.4546778833
  - # 6
    frequency:    16.6173905164

- q-position: [    0.4250000,    0.2250000,    0.0250000 ]
  distance_from_gamma:  0.126188306
  weight: 12   
  band:
  - # 1
    frequency:     5.1158078351
  - # 2
    frequency:     5.7549699660
  - # 3
    frequency:     9.3468645805
  - # 4
    frequency:    14.8682961366
  - # 5
    frequency:    16.3273161159
  - # 6
    frequency:    16.5058937430

- q-position: [    0.4750000,    0.2250000,    0.0250000 ]
  distance_from_gamma:  0.140126565
  weight: 12   
  band:
  - # 1
    frequency:     5.3060775589
  - # 2
    frequency:     6.2168970061
  - # 3
    frequency:    10.1442846503
  - # 4
    frequency:    14.1922668404
  - # 5
    frequency:    16.2422661910
  - # 6
    frequency:    16.4072383847

- q-position: [    0.5250000,    0.2250000,    0.0250000 ]
  distance_from_gamma:  0.154446097
  weight: 12   
  band:
  - # 1
    frequency:     5.3889173604
  - # 2
    frequency:     6.5758280787
  - # 3
    frequency:    10.8504442942
  - # 4
    frequency:    13.5220761106
  - # 5
    frequency:    16.2107836790
  - # 6
    frequency:    16.3331532446

- q-position: [    0.5750000,    0.2250000,    0.0250000 ]
  distance_from_gamma:  0.169050042
  weight: 12   