LAMMPS (2 Aug 2023 - Update 3)
OMP_NUM_THREADS environment is not set. Defaulting to 1 thread. (src/comm.cpp:98)
  using 1 OpenMP thread(s) per MPI task

The 'box' command has been removed and will be ignored

Reading data file ...
  triclinic box = (0 0 0) to (10.887405 10.887405 10.887405) with tilt (0 0 0)
  1 by 2 by 5 MPI processor grid
  reading atoms ...
  64 atoms
  read_data CPU = 0.007 seconds
Reading sw potential file Si.sw with DATE: 2007-06-11
Neighbor list info ...
  update: every = 1 steps, delay = 0 steps, check = yes
  max neighbors/atom: 2000, page size: 100000
  master list distance cutoff = 4.07118
  ghost atom cutoff = 4.07118
  binsize = 2.03559, bins = 6 6 6
  1 neighbor lists, perpetual/occasional/extra = 1 0 0
  (1) pair sw, perpetual
      attributes: full, newton on
      pair build: full/bin/atomonly
      stencil: full/bin/3d
      bin: standard
Setting up Verlet run ...
  Unit style    : metal
  Current step  : 0
  Time step     : 0.001
Per MPI rank memory allocation (min/avg/max) = 3.067 | 3.068 | 3.068 Mbytes
   Step         TotEng          Temp          Volume         Press     
         0  -275.07935      300            1290.5449     -5041.2324    
      1000  -274.65343      158.91138      1290.5449     -5356.1259    
      2000  -274.0509       197.63572      1290.5449     -4800.9287    
      3000  -273.29631      329.79915      1290.5449     -3487.4061    
      4000  -272.58379      258.19048      1290.5449     -4080.1562    
      5000  -272.13031      307.38266      1290.5449     -3716.8024    
      6000  -272.1662       319.61786      1290.5449     -3289.3608    
      7000  -272.63536      359.15492      1290.5449     -3111.2416    
      8000  -272.97362      272.79178      1290.5449     -3758.3254    
      9000  -272.97699      229.06794      1290.5449     -3873.6108    
     10000  -272.55744      288.61137      1290.5449     -3405.1329    
Loop time of 0.462032 on 10 procs for 10000 steps with 64 atoms

Performance: 1869.999 ns/day, 0.013 hours/ns, 21643.511 timesteps/s, 1.385 Matom-step/s
96.3% CPU use with 10 MPI tasks x 1 OpenMP threads

MPI task timing breakdown:
Section |  min time  |  avg time  |  max time  |%varavg| %total
---------------------------------------------------------------
Pair    | 0.029655   | 0.052043   | 0.084542   |   6.5 | 11.26
Neigh   | 0.0023525  | 0.0040928  | 0.0058564  |   1.5 |  0.89
Comm    | 0.28333    | 0.30779    | 0.32604    |   2.4 | 66.62
Output  | 0.00012938 | 0.00025322 | 0.0010223  |   0.0 |  0.05
Modify  | 0.047069   | 0.058214   | 0.070804   |   3.1 | 12.60
Other   |            | 0.03964    |            |       |  8.58

Nlocal:            6.4 ave           9 max           4 min
Histogram: 2 0 2 0 1 0 2 0 1 2
Nghost:          121.7 ave         127 max         111 min
Histogram: 1 1 0 0 0 1 2 0 1 4
Neighs:              0 ave           0 max           0 min
Histogram: 10 0 0 0 0 0 0 0 0 0
FullNghs:        102.4 ave         144 max          64 min
Histogram: 2 0 2 0 1 0 2 0 1 2

Total # of neighbors = 1024
Ave neighs/atom = 16
Neighbor list builds = 554
Dangerous builds = 0
Setting up Verlet run ...
  Unit style    : metal
  Current step  : 10000
  Time step     : 0.001
Per MPI rank memory allocation (min/avg/max) = 3.083 | 3.083 | 3.084 Mbytes
   Step         TotEng          Temp          Volume         Press     
     10000  -272.55744      288.61137      1290.5449     -3405.1329    
     11000  -272.1878       303.66128      1290.5449     -3277.6964    
     12000  -272.30074      317.54558      1290.5449     -3379.6867    
     13000  -272.65083      251.39784      1290.5449     -3684.276     
     14000  -272.77623      278.81804      1290.5449     -3581.1689    
     15000  -272.71427      333.84489      1290.5449     -3712.6141    
     16000  -272.55468      314.73653      1290.5449     -3566.5048    
     17000  -272.34208      308.0253       1290.5449     -3460.4695    
     18000  -272.2018       339.17388      1290.5449     -3100.7318    
     19000  -272.48529      353.08862      1290.5449     -3428.4836    
     20000  -272.9762       244.69213      1290.5449     -4154.7938    
     21000  -273.03097      264.31153      1290.5449     -3605.888     
     22000  -272.61859      291.91002      1290.5449     -3567.8343    
     23000  -272.15364      347.09968      1290.5449     -3120.4799    
     24000  -272.26884      328.3278       1290.5449     -3684.0803    
     25000  -272.56211      311.74735      1290.5449     -3493.5019    
     26000  -272.82612      298.29016      1290.5449     -3529.2242    
     27000  -272.93119      272.97317      1290.5449     -4020.0642    
     28000  -272.66056      308.04957      1290.5449     -3879.8955    
     29000  -272.14607      283.63431      1290.5449     -3827.8652    
     30000  -272.15325      345.30136      1290.5449     -3081.3743    
     31000  -272.67819      310.69813      1290.5449     -3929.8476    
     32000  -272.93821      256.11269      1290.5449     -3875.4485    
     33000  -272.84655      271.09931      1290.5449     -3850.2902    
     34000  -272.64712      330.60613      1290.5449     -3630.2705    
     35000  -272.52171      338.62448      1290.5449     -3258.9847    
     36000  -272.52631      284.8224       1290.5449     -3904.6019    
     37000  -272.57104      326.62791      1290.5449     -3240.091     
     38000  -272.63076      284.88092      1290.5449     -3589.0904    
     39000  -272.72071      286.65698      1290.5449     -3541.6987    
     40000  -272.92976      240.33445      1290.5449     -4267.0575    
     41000  -273.03587      298.43208      1290.5449     -3740.1807    
     42000  -272.72689      300.1293       1290.5449     -3537.224     
     43000  -272.25796      303.38673      1290.5449     -3622.3896    
     44000  -272.23854      309.1354       1290.5449     -3172.5025    
     45000  -272.64767      293.56139      1290.5449     -3715.9405    
     46000  -273.13849      296.94427      1290.5449     -3959.1429    
     47000  -273.09325      220.11126      1290.5449     -4173.3196    
     48000  -272.81471      277.06924      1290.5449     -3826.8772    
     49000  -272.43423      312.49862      1290.5449     -3337.9699    
     50000  -272.25829      300.99412      1290.5449     -3754.0169    
     51000  -272.51218      333.165        1290.5449     -3459.2449    
     52000  -273.14483      283.7225       1290.5449     -3985.0639    
     53000  -273.10738      289.83517      1290.5449     -3930.7067    
     54000  -272.74296      263.67768      1290.5449     -4039.4383    
     55000  -272.50583      325.6927       1290.5449     -3325.5213    
     56000  -272.4925       305.78307      1290.5449     -3539.9136    
     57000  -272.5823       291.38131      1290.5449     -3930.0076    
     58000  -272.7869       291.19435      1290.5449     -3807.1459    
     59000  -273.3745       238.42655      1290.5449     -4043.5617    
     60000  -273.35967      284.48325      1290.5449     -4065.911     
Loop time of 6.62543 on 10 procs for 50000 steps with 64 atoms

Performance: 652.033 ns/day, 0.037 hours/ns, 7546.675 timesteps/s, 482.987 katom-step/s
95.1% CPU use with 10 MPI tasks x 1 OpenMP threads

MPI task timing breakdown:
Section |  min time  |  avg time  |  max time  |%varavg| %total
---------------------------------------------------------------
Pair    | 0.17314    | 0.27399    | 0.34076    |  11.5 |  4.14
Neigh   | 0.017116   | 0.02475    | 0.031349   |   2.9 |  0.37
Comm    | 2.1269     | 2.174      | 2.2442     |   2.5 | 32.81
Output  | 2.7394     | 3.0508     | 3.5134     |  12.4 | 46.05
Modify  | 0.38206    | 0.43397    | 0.47336    |   4.3 |  6.55
Other   |            | 0.668      |            |       | 10.08

Nlocal:            6.4 ave          10 max           3 min
Histogram: 1 0 2 0 3 2 0 0 1 1
Nghost:          122.6 ave         132 max         112 min
Histogram: 1 0 2 0 1 1 2 0 2 1
Neighs:              0 ave           0 max           0 min
Histogram: 10 0 0 0 0 0 0 0 0 0
FullNghs:        102.4 ave         160 max          48 min
Histogram: 1 0 2 0 3 2 0 0 1 1

Total # of neighbors = 1024
Ave neighs/atom = 16
Neighbor list builds = 2991
Dangerous builds = 0
Total wall time: 0:00:07
