phonopy:
  version: "2.28.0"
  calculator: lammps
  frequency_unit_conversion_factor: 15.633302
  symmetry_tolerance: 1.00000e-05
  configuration:
    cell_filename: "si.data"
    create_displacements: ".true."
    dim: "2 2 2"
    calculator: "lammps"

physical_unit:
  atomic_mass: "AMU"
  length: "angstrom"

space_group:
  type: "Fd-3m"
  number: 227
  Hall_symbol: "F 4d 2 3 -1d"

supercell_matrix:
- [   2,   0,   0 ]
- [   0,   2,   0 ]
- [   0,   0,   2 ]

primitive_cell:
  lattice:
  - [     5.443702372900000,     0.000000000000000,     0.000000000000000 ] # a
  - [     0.000000000000000,     5.443702372900000,     0.000000000000000 ] # b
  - [     0.000000000000000,     0.000000000000000,     5.443702372900000 ] # c
  points:
  - symbol: H # 1
    coordinates: [  0.750000000004592,  0.750000000004592,  0.249999999995408 ]
    mass: 1.007940
  - symbol: H # 2
    coordinates: [  0.000000000000000,  0.500000000009185,  0.500000000009185 ]
    mass: 1.007940
  - symbol: H # 3
    coordinates: [  0.750000000004592,  0.249999999995408,  0.750000000004592 ]
    mass: 1.007940
  - symbol: H # 4
    coordinates: [  0.000000000000000,  0.000000000000000,  0.000000000000000 ]
    mass: 1.007940
  - symbol: H # 5
    coordinates: [  0.249999999995408,  0.750000000004592,  0.750000000004592 ]
    mass: 1.007940
  - symbol: H # 6
    coordinates: [  0.500000000009185,  0.500000000009185,  0.000000000000000 ]
    mass: 1.007940
  - symbol: H # 7
    coordinates: [  0.249999999995408,  0.249999999995408,  0.249999999995408 ]
    mass: 1.007940
  - symbol: H # 8
    coordinates: [  0.500000000009185,  0.000000000000000,  0.500000000009185 ]
    mass: 1.007940
  reciprocal_lattice: # without 2pi
  - [     0.183698507283982,     0.000000000000000,     0.000000000000000 ] # a*
  - [     0.000000000000000,     0.183698507283982,     0.000000000000000 ] # b*
  - [     0.000000000000000,     0.000000000000000,     0.183698507283982 ] # c*

unit_cell:
  lattice:
  - [     5.443702372900000,     0.000000000000000,     0.000000000000000 ] # a
  - [     0.000000000000000,     5.443702372900000,     0.000000000000000 ] # b
  - [     0.000000000000000,     0.000000000000000,     5.443702372900000 ] # c
  points:
  - symbol: H # 1
    coordinates: [  0.750000000004592,  0.750000000004592,  0.249999999995408 ]
    mass: 1.007940
    reduced_to: 1
  - symbol: H # 2
    coordinates: [  0.000000000000000,  0.500000000009185,  0.500000000009185 ]
    mass: 1.007940
    reduced_to: 2
  - symbol: H # 3
    coordinates: [  0.750000000004592,  0.249999999995408,  0.750000000004592 ]
    mass: 1.007940
    reduced_to: 3
  - symbol: H # 4
    coordinates: [  0.000000000000000,  0.000000000000000,  0.000000000000000 ]
    mass: 1.007940
    reduced_to: 4
  - symbol: H # 5
    coordinates: [  0.249999999995408,  0.750000000004592,  0.750000000004592 ]
    mass: 1.007940
    reduced_to: 5
  - symbol: H # 6
    coordinates: [  0.500000000009185,  0.500000000009185,  0.000000000000000 ]
    mass: 1.007940
    reduced_to: 6
  - symbol: H # 7
    coordinates: [  0.249999999995408,  0.249999999995408,  0.249999999995408 ]
    mass: 1.007940
    reduced_to: 7
  - symbol: H # 8
    coordinates: [  0.500000000009185,  0.000000000000000,  0.500000000009185 ]
    mass: 1.007940
    reduced_to: 8

supercell:
  lattice:
  - [    10.887404745800000,     0.000000000000000,     0.000000000000000 ] # a
  - [     0.000000000000000,    10.887404745800000,     0.000000000000000 ] # b
  - [     0.000000000000000,     0.000000000000000,    10.887404745800000 ] # c
  points:
  - symbol: H # 1
    coordinates: [  0.375000000002296,  0.375000000002296,  0.124999999997704 ]
    mass: 1.007940
    reduced_to: 1
  - symbol: H # 2
    coordinates: [  0.875000000002296,  0.375000000002296,  0.124999999997704 ]
    mass: 1.007940
    reduced_to: 1
  - symbol: H # 3
    coordinates: [  0.375000000002296,  0.875000000002296,  0.124999999997704 ]
    mass: 1.007940
    reduced_to: 1
  - symbol: H # 4
    coordinates: [  0.875000000002296,  0.875000000002296,  0.124999999997704 ]
    mass: 1.007940
    reduced_to: 1
  - symbol: H # 5
    coordinates: [  0.375000000002296,  0.375000000002296,  0.624999999997704 ]
    mass: 1.007940
    reduced_to: 1
  - symbol: H # 6
    coordinates: [  0.875000000002296,  0.375000000002296,  0.624999999997704 ]
    mass: 1.007940
    reduced_to: 1
  - symbol: H # 7
    coordinates: [  0.375000000002296,  0.875000000002296,  0.624999999997704 ]
    mass: 1.007940
    reduced_to: 1
  - symbol: H # 8
    coordinates: [  0.875000000002296,  0.875000000002296,  0.624999999997704 ]
    mass: 1.007940
    reduced_to: 1
  - symbol: H # 9
    coordinates: [  0.000000000000000,  0.250000000004592,  0.250000000004592 ]
    mass: 1.007940
    reduced_to: 9
  - symbol: H # 10
    coordinates: [  0.500000000000000,  0.250000000004592,  0.250000000004592 ]
    mass: 1.007940
    reduced_to: 9
  - symbol: H # 11
    coordinates: [  0.000000000000000,  0.750000000004593,  0.250000000004592 ]
    mass: 1.007940
    reduced_to: 9
  - symbol: H # 12
    coordinates: [  0.500000000000000,  0.750000000004593,  0.250000000004592 ]
    mass: 1.007940
    reduced_to: 9
  - symbol: H # 13
    coordinates: [  0.000000000000000,  0.250000000004592,  0.750000000004593 ]
    mass: 1.007940
    reduced_to: 9
  - symbol: H # 14
    coordinates: [  0.500000000000000,  0.250000000004592,  0.750000000004593 ]
    mass: 1.007940
    reduced_to: 9
  - symbol: H # 15
    coordinates: [  0.000000000000000,  0.750000000004593,  0.750000000004593 ]
    mass: 1.007940
    reduced_to: 9
  - symbol: H # 16
    coordinates: [  0.500000000000000,  0.750000000004593,  0.750000000004593 ]
    mass: 1.007940
    reduced_to: 9
  - symbol: H # 17
    coordinates: [  0.375000000002296,  0.124999999997704,  0.375000000002296 ]
    mass: 1.007940
    reduced_to: 17
  - symbol: H # 18
    coordinates: [  0.875000000002296,  0.124999999997704,  0.375000000002296 ]
    mass: 1.007940
    reduced_to: 17
  - symbol: H # 19
    coordinates: [  0.375000000002296,  0.624999999997704,  0.375000000002296 ]
    mass: 1.007940
    reduced_to: 17
  - symbol: H # 20
    coordinates: [  0.875000000002296,  0.624999999997704,  0.375000000002296 ]
    mass: 1.007940
    reduced_to: 17
  - symbol: H # 21
    coordinates: [  0.375000000002296,  0.124999999997704,  0.875000000002296 ]
    mass: 1.007940
    reduced_to: 17
  - symbol: H # 22
    coordinates: [  0.875000000002296,  0.124999999997704,  0.875000000002296 ]
    mass: 1.007940
    reduced_to: 17
  - symbol: H # 23
    coordinates: [  0.375000000002296,  0.624999999997704,  0.875000000002296 ]
    mass: 1.007940
    reduced_to: 17
  - symbol: H # 24
    coordinates: [  0.875000000002296,  0.624999999997704,  0.875000000002296 ]
    mass: 1.007940
    reduced_to: 17
  - symbol: H # 25
    coordinates: [  0.000000000000000,  0.000000000000000,  0.000000000000000 ]
    mass: 1.007940
    reduced_to: 25
  - symbol: H # 26
    coordinates: [  0.500000000000000,  0.000000000000000,  0.000000000000000 ]
    mass: 1.007940
    reduced_to: 25
  - symbol: H # 27
    coordinates: [  0.000000000000000,  0.500000000000000,  0.000000000000000 ]
    mass: 1.007940
    reduced_to: 25
  - symbol: H # 28
    coordinates: [  0.500000000000000,  0.500000000000000,  0.000000000000000 ]
    mass: 1.007940
    reduced_to: 25
  - symbol: H # 29
    coordinates: [  0.000000000000000,  0.000000000000000,  0.500000000000000 ]
    mass: 1.007940
    reduced_to: 25
  - symbol: H # 30
    coordinates: [  0.500000000000000,  0.000000000000000,  0.500000000000000 ]
    mass: 1.007940
    reduced_to: 25
  - symbol: H # 31
    coordinates: [  0.000000000000000,  0.500000000000000,  0.500000000000000 ]
    mass: 1.007940
    reduced_to: 25
  - symbol: H # 32
    coordinates: [  0.500000000000000,  0.500000000000000,  0.500000000000000 ]
    mass: 1.007940
    reduced_to: 25
  - symbol: H # 33
    coordinates: [  0.124999999997704,  0.375000000002296,  0.375000000002296 ]
    mass: 1.007940
    reduced_to: 33
  - symbol: H # 34
    coordinates: [  0.624999999997704,  0.375000000002296,  0.375000000002296 ]
    mass: 1.007940
    reduced_to: 33
  - symbol: H # 35
    coordinates: [  0.124999999997704,  0.875000000002296,  0.375000000002296 ]
    mass: 1.007940
    reduced_to: 33
  - symbol: H # 36
    coordinates: [  0.624999999997704,  0.875000000002296,  0.375000000002296 ]
    mass: 1.007940
    reduced_to: 33
  - symbol: H # 37
    coordinates: [  0.124999999997704,  0.375000000002296,  0.875000000002296 ]
    mass: 1.007940
    reduced_to: 33
  - symbol: H # 38
    coordinates: [  0.624999999997704,  0.375000000002296,  0.875000000002296 ]
    mass: 1.007940
    reduced_to: 33
  - symbol: H # 39
    coordinates: [  0.124999999997704,  0.875000000002296,  0.875000000002296 ]
    mass: 1.007940
    reduced_to: 33
  - symbol: H # 40
    coordinates: [  0.624999999997704,  0.875000000002296,  0.875000000002296 ]
    mass: 1.007940
    reduced_to: 33
  - symbol: H # 41
    coordinates: [  0.250000000004592,  0.250000000004592,  0.000000000000000 ]
    mass: 1.007940
    reduced_to: 41
  - symbol: H # 42
    coordinates: [  0.750000000004593,  0.250000000004592,  0.000000000000000 ]
    mass: 1.007940
    reduced_to: 41
  - symbol: H # 43
    coordinates: [  0.250000000004592,  0.750000000004593,  0.000000000000000 ]
    mass: 1.007940
    reduced_to: 41
  - symbol: H # 44
    coordinates: [  0.750000000004593,  0.750000000004593,  0.000000000000000 ]
    mass: 1.007940
    reduced_to: 41
  - symbol: H # 45
    coordinates: [  0.250000000004592,  0.250000000004592,  0.500000000000000 ]
    mass: 1.007940
    reduced_to: 41
  - symbol: H # 46
    coordinates: [  0.750000000004593,  0.250000000004592,  0.500000000000000 ]
    mass: 1.007940
    reduced_to: 41
  - symbol: H # 47
    coordinates: [  0.250000000004592,  0.750000000004593,  0.500000000000000 ]
    mass: 1.007940
    reduced_to: 41
  - symbol: H # 48
    coordinates: [  0.750000000004593,  0.750000000004593,  0.500000000000000 ]
    mass: 1.007940
    reduced_to: 41
  - symbol: H # 49
    coordinates: [  0.124999999997704,  0.124999999997704,  0.124999999997704 ]
    mass: 1.007940
    reduced_to: 49
  - symbol: H # 50
    coordinates: [  0.624999999997704,  0.124999999997704,  0.124999999997704 ]
    mass: 1.007940
    reduced_to: 49
  - symbol: H # 51
    coordinates: [  0.124999999997704,  0.624999999997704,  0.124999999997704 ]
    mass: 1.007940
    reduced_to: 49
  - symbol: H # 52
    coordinates: [  0.624999999997704,  0.624999999997704,  0.124999999997704 ]
    mass: 1.007940
    reduced_to: 49
  - symbol: H # 53
    coordinates: [  0.124999999997704,  0.124999999997704,  0.624999999997704 ]
    mass: 1.007940
    reduced_to: 49
  - symbol: H # 54
    coordinates: [  0.624999999997704,  0.124999999997704,  0.624999999997704 ]
    mass: 1.007940
    reduced_to: 49
  - symbol: H # 55
    coordinates: [  0.124999999997704,  0.624999999997704,  0.624999999997704 ]
    mass: 1.007940
    reduced_to: 49
  - symbol: H # 56
    coordinates: [  0.624999999997704,  0.624999999997704,  0.624999999997704 ]
    mass: 1.007940
    reduced_to: 49
  - symbol: H # 57
    coordinates: [  0.250000000004592,  0.000000000000000,  0.250000000004592 ]
    mass: 1.007940
    reduced_to: 57
  - symbol: H # 58
    coordinates: [  0.750000000004593,  0.000000000000000,  0.250000000004592 ]
    mass: 1.007940
    reduced_to: 57
  - symbol: H # 59
    coordinates: [  0.250000000004592,  0.500000000000000,  0.250000000004592 ]
    mass: 1.007940
    reduced_to: 57
  - symbol: H # 60
    coordinates: [  0.750000000004593,  0.500000000000000,  0.250000000004592 ]
    mass: 1.007940
    reduced_to: 57
  - symbol: H # 61
    coordinates: [  0.250000000004592,  0.000000000000000,  0.750000000004593 ]
    mass: 1.007940
    reduced_to: 57
  - symbol: H # 62
    coordinates: [  0.750000000004593,  0.000000000000000,  0.750000000004593 ]
    mass: 1.007940
    reduced_to: 57
  - symbol: H # 63
    coordinates: [  0.250000000004592,  0.500000000000000,  0.750000000004593 ]
    mass: 1.007940
    reduced_to: 57
  - symbol: H # 64
    coordinates: [  0.750000000004593,  0.500000000000000,  0.750000000004593 ]
    mass: 1.007940
    reduced_to: 57

displacements:
- atom:    1
  displacement:
    [   0.0100000000000000,  0.0000000000000000,  0.0000000000000000 ]
