Generated using dynaphopy

8 atoms

1 atom types


        0.0000000000         5.4437023729 xlo xhi
        0.0000000000         5.4437023729 ylo yhi
        0.0000000000         5.4437023729 zlo zhi
        0.0000000000         0.0000000000         0.0000000000 xy xz yz

Masses

1        28.0855000000 

Atoms

1 1         4.0827767797         4.0827767797         1.3609255932
2 1         0.0000000000         2.7218511865         2.7218511865
3 1         4.0827767797         1.3609255932         4.0827767797
4 1         0.0000000000         0.0000000000         0.0000000000
5 1         1.3609255932         4.0827767797         4.0827767797
6 1         2.7218511865         2.7218511865         0.0000000000
7 1         1.3609255932         1.3609255932         1.3609255932
8 1         2.7218511865         0.0000000000         2.7218511865
