#

64 atoms
1 atom types

0.0 10.8874047458 xlo xhi
0.0 10.8874047458 ylo yhi
0.0 10.8874047458 zlo zhi

6.666612686482836e-16 6.666612686482836e-16 1.208744742720036e-15 xy xz yz


Atom Type Labels

1 H


Atoms

1 H 4.092776779699999 4.0827767797 1.3609255932
2 H 9.526479152599999 4.0827767797 1.3609255932
3 H 4.0827767797000005 9.526479152599999 1.3609255932
4 H 9.526479152599999 9.526479152599999 1.3609255932
5 H 4.0827767797 4.0827767797000005 6.804627966099999
6 H 9.526479152599999 4.0827767797000005 6.804627966099999
7 H 4.0827767797000005 9.526479152599999 6.804627966099999
8 H 9.526479152599999 9.526479152599999 6.804627966099999
9 H 3.333306343302651e-16 2.721851186500001 2.7218511865000004
10 H 5.4437023729 2.721851186500001 2.7218511865000004
11 H 6.666612686544071e-16 8.165553559400001 2.7218511865000004
12 H 5.443702372900001 8.165553559400001 2.7218511865000004
13 H 6.666612686544071e-16 2.7218511865000012 8.165553559400001
14 H 5.443702372900001 2.7218511865000012 8.165553559400001
15 H 9.99991902978549e-16 8.165553559400003 8.165553559400001
16 H 5.443702372900002 8.165553559400003 8.165553559400001
17 H 4.0827767797 1.3609255932000004 4.0827767797
18 H 9.526479152599999 1.3609255932000004 4.0827767797
19 H 4.0827767797 6.8046279661 4.0827767797
20 H 9.526479152599999 6.8046279661 4.0827767797
21 H 4.0827767797000005 1.360925593200001 9.526479152599999
22 H 9.526479152599999 1.360925593200001 9.526479152599999
23 H 4.0827767797000005 6.8046279661 9.526479152599999
24 H 9.526479152599999 6.8046279661 9.526479152599999
25 H 0.0 0.0 0.0
26 H 5.4437023729 0.0 0.0
27 H 3.333306343241418e-16 5.4437023729 0.0
28 H 5.4437023729 5.4437023729 0.0
29 H 3.333306343241418e-16 6.04372371360018e-16 5.4437023729
30 H 5.4437023729 6.04372371360018e-16 5.4437023729
31 H 6.666612686482836e-16 5.443702372900001 5.4437023729
32 H 5.4437023729 5.443702372900001 5.4437023729
33 H 1.3609255932000004 4.0827767797000005 4.0827767797
34 H 6.804627966099999 4.0827767797000005 4.0827767797
35 H 1.3609255932000008 9.526479152599999 4.0827767797
36 H 6.8046279661 9.526479152599999 4.0827767797
37 H 1.3609255932000008 4.0827767797000005 9.526479152599999
38 H 6.8046279661 4.0827767797000005 9.526479152599999
39 H 1.3609255932000013 9.5264791526 9.526479152599999
40 H 6.804627966100001 9.5264791526 9.526479152599999
41 H 2.7218511865000004 2.7218511865000004 0.0
42 H 8.165553559400001 2.7218511865000004 0.0
43 H 2.721851186500001 8.165553559400001 0.0
44 H 8.165553559400001 8.165553559400001 0.0
45 H 2.721851186500001 2.721851186500001 5.4437023729
46 H 8.165553559400001 2.721851186500001 5.4437023729
47 H 2.7218511865000012 8.165553559400001 5.4437023729
48 H 8.165553559400001 8.165553559400001 5.4437023729
49 H 1.3609255932 1.3609255932000002 1.3609255932
50 H 6.804627966099999 1.3609255932000002 1.3609255932
51 H 1.3609255932000004 6.804627966099999 1.3609255932
52 H 6.804627966099999 6.804627966099999 1.3609255932
53 H 1.3609255932000004 1.3609255932000006 6.804627966099999
54 H 6.804627966099999 1.3609255932000006 6.804627966099999
55 H 1.3609255932000008 6.8046279661 6.804627966099999
56 H 6.804627966099999 6.8046279661 6.804627966099999
57 H 2.7218511865000004 3.0218618568556014e-16 2.7218511865000004
58 H 8.165553559400001 3.0218618568556014e-16 2.7218511865000004
59 H 2.721851186500001 5.4437023729 2.7218511865000004
60 H 8.165553559400001 5.4437023729 2.7218511865000004
61 H 2.721851186500001 9.065585570455782e-16 8.165553559400001
62 H 8.165553559400001 9.065585570455782e-16 8.165553559400001
63 H 2.7218511865000012 5.443702372900001 8.165553559400001
64 H 8.165553559400001 5.443702372900001 8.165553559400001