nqpoint: 204    
npath: 4      
segment_nqpoint:
- 51
- 51
- 51
- 51
reciprocal_lattice:
- [   0.31347962,   0.18098754,   0.00000000 ] # a*
- [   0.00000000,   0.36197509,   0.00000000 ] # b*
- [   0.00000000,   0.00000000,   0.19271535 ] # c*
natom: 4      
lattice:
- [     3.190000057200000,     0.000000000000000,     0.000000000000000 ] # a
- [    -1.595000028600000,     2.762621076000000,     0.000000000000000 ] # b
- [     0.000000000000000,     0.000000000000000,     5.189000129699999 ] # c
points:
- symbol: Ga # 1
  coordinates: [  0.666666690000000,  0.333333340000000,  0.000000000000000 ]
  mass: 69.723000
- symbol: Ga # 2
  coordinates: [  0.333333310000000,  0.666666630000000,  0.500000000000000 ]
  mass: 69.723000
- symbol: N  # 3
  coordinates: [  0.666666690000000,  0.333333340000000,  0.375000000000000 ]
  mass: 14.006700
- symbol: N  # 4
  coordinates: [  0.333333310000000,  0.666666630000000,  0.875000000000000 ]
  mass: 14.006700

phonon:
- q-position: [    0.0000000,    0.0000000,    0.0000000 ]
  distance:    0.0000000
  band:
  - # 1
    frequency:   -0.0008178172
  - # 2
    frequency:   -0.0008178171
  - # 3
    frequency:   -0.0002617796
  - # 4
    frequency:    4.5767619155
  - # 5
    frequency:    4.5767619322
  - # 6
    frequency:   10.0069740835
  - # 7
    frequency:   22.7920427668
  - # 8
    frequency:   22.7920428497
  - # 9
    frequency:   22.9333077509
  - # 10
    frequency:   23.3598194277
  - # 11
    frequency:   23.3598195127
  - # 12
    frequency:   23.6289637881

- q-position: [    0.0066600,    0.0066600,    0.0000000 ]
  distance:    0.0041755
  band:
  - # 1
    frequency:    0.1642140629
  - # 2
    frequency:    0.1646778844
  - # 3
    frequency:    0.3056967112
  - # 4
    frequency:    4.5800807556
  - # 5
    frequency:    4.5860462835
  - # 6
    frequency:   10.0060846154
  - # 7
    frequency:   22.7791569492
  - # 8
    frequency:   22.7916743557
  - # 9
    frequency:   22.9451858247
  - # 10
    frequency:   23.3581424836
  - # 11
    frequency:   23.3591707955
  - # 12
    frequency:   23.6293615710

- q-position: [    0.0133200,    0.0133200,    0.0000000 ]
  distance:    0.0083511
  band:
  - # 1
    frequency:    0.3283785089
  - # 2
    frequency:    0.3292806706
  - # 3
    frequency:    0.6110125429
  - # 4
    frequency:    4.5900182865
  - # 5
    frequency:    4.6137202079
  - # 6
    frequency:   10.0034197096
  - # 7
    frequency:   22.7484828171
  - # 8
    frequency:   22.7905699720
  - # 9
    frequency:   22.9728388536
  - # 10
    frequency:   23.3531545699
  - # 11
    frequency:   23.3572308324
  - # 12
    frequency:   23.6305161535

- q-position: [    0.0199800,    0.0199800,    0.0000000 ]
  distance:    0.0125266
  band:
  - # 1
    frequency:    0.4924364543
  - # 2
    frequency:    0.4937325731
  - # 3
    frequency:    0.9155637250
  - # 4
    frequency:    4.6065179067
  - # 5
    frequency:    4.6592571050
  - # 6
    frequency:    9.9989899307
  - # 7
    frequency:   22.7097496585
  - # 8
    frequency:   22.7887320595
  - # 9
    frequency:   23.0065441430
  - # 10
    frequency:   23.3449768969
  - # 11
    frequency:   23.3540179415
  - # 12
    frequency:   23.6323197230

- q-position: [    0.0266400,    0.0266400,    0.0000000 ]
  distance:    0.0167022
  band:
  - # 1
    frequency:    0.6563343033
  - # 2
    frequency:    0.6579582553
  - # 3
    frequency:    1.2189702704
  - # 4
    frequency:    4.6294864413
  - # 5
    frequency:    4.7218136829
  - # 6
    frequency:    9.9928131201
  - # 7
    frequency:   22.6672050479
  - # 8
    frequency:   22.7861641382
  - # 9
    frequency:   23.0420628210
  - # 10
    frequency:   23.3337873657
  - # 11
    frequency:   23.3495648763
  - # 12
    frequency:   23.6346170793

- q-position: [    0.0333000,    0.0333000,    0.0000000 ]
  distance:    0.0208777
  band:
  - # 1
    frequency:    0.8200166332
  - # 2
    frequency:    0.8218823675
  - # 3
    frequency:    1.5208542149
  - # 4
    frequency:    4.6587958287
  - # 5
    frequency:    4.8002762635
  - # 6
    frequency:    9.9849147545
  - # 7
    frequency:   22.6225293392
  - # 8
    frequency:   22.7828699591
  - # 9
    frequency:   23.0777210057
  - # 10
    frequency:   23.3197952404
  - # 11
    frequency:   23.3439230639
  - # 12
    frequency:   23.6372318306

- q-position: [    0.0399600,    0.0399600,    0.0000000 ]
  distance:    0.0250533
  band:
  - # 1
    frequency:    0.9834260811
  - # 2
    frequency:    0.9854296019
  - # 3
    frequency:    1.8208405152
  - # 4
    frequency:    4.6942853678
  - # 5
    frequency:    4.8933164684
  - # 6
    frequency:    9.9753284629
  - # 7
    frequency:   22.5764972913
  - # 8
    frequency:   22.7788522412
  - # 9
    frequency:   23.1127385041
  - # 10
    frequency:   23.3032196007
  - # 11
    frequency:   23.3371721345
  - # 12
    frequency:   23.6399891185

- q-position: [    0.0466200,    0.0466200,    0.0000000 ]
  distance:    0.0292288
  band:
  - # 1
    frequency:    1.1465029561
  - # 2
    frequency:    1.1485247268
  - # 3
    frequency:    2.1185577570
  - # 4
    frequency:    4.7357644298
  - # 5
    frequency:    4.9994498012
  - # 6
    frequency:    9.9640967182
  - # 7
    frequency:   22.5295381365
  - # 8
    frequency:   22.7741109136
  - # 9
    frequency:   23.1466459724
  - # 10
    frequency:   23.2842757281
  - # 11
    frequency:   23.3294424989
  - # 12
    frequency:   23.6427308784

- q-position: [    0.0532800,    0.0532800,    0.0000000 ]
  distance:    0.0334044
  band:
  - # 1
    frequency:    1.3091848348
  - # 2
    frequency:    1.3110926250
  - # 3
    frequency:    2.4136387923
  - # 4
    frequency:    4.7830155323
  - # 5
    frequency:    5.1170915056
  - # 6
    frequency:    9.9512717224
  - # 7
    frequency:   22.4819330372
  - # 8
    frequency:   22.7686407471
  - # 9
    frequency:   23.1790267311
  - # 10
    frequency:   23.2631696378
  - # 11
    frequency:   23.3209758277
  - # 12
    frequency:   23.6453235397

- q-position: [    0.0599400,    0.0599400,    0.0000000 ]
  distance:    0.0375799
  band:
  - # 1
    frequency:    1.4714061705
  - # 2
    frequency:    1.4730583419
  - # 3
    frequency:    2.7057212886
  - # 4
    frequency:    4.8357976781
  - # 5
    frequency:    5.2446056636
  - # 6
    frequency:    9.9369165107
  - # 7
    frequency:   22.4338932616
  - # 8
    frequency:   22.7624282138
  - # 9
    frequency:   23.2092462027
  - # 10
    frequency:   23.2400990005
  - # 11
    frequency:   23.3123171286
  - # 12
    frequency:   23.6476600838

- q-position: [    0.0666000,    0.0666000,    0.0000000 ]
  distance:    0.0417555
  band:
  - # 1
    frequency:    1.6330979243
  - # 2
    frequency:    1.6343471425
  - # 3
    frequency:    2.9944481426
  - # 4
    frequency:    4.8938498922
  - # 5
    frequency:    5.3803452827
  - # 6
    frequency:    9.9211063010
  - # 7
    frequency:   22.3855946020
  - # 8
    frequency:   22.7554473611
  - # 9
    frequency:   23.2152584085
  - # 10
    frequency:   23.2356755491
  - # 11
    frequency:   23.3050563130
  - # 12
    frequency:   23.6496587164

- q-position: [    0.0732600,    0.0732600,    0.0000000 ]
  distance:    0.0459310
  band:
  - # 1
    frequency:    1.7941872204
  - # 2
    frequency:    1.7948845762
  - # 3
    frequency:    3.2794676636
  - # 4
    frequency:    4.9568949404
  - # 5
    frequency:    5.5226826891
  - # 6
    frequency:    9.9039301193
  - # 7
    frequency:   22.3371938611
  - # 8
    frequency:   22.7476544352
  - # 9
    frequency:   23.1888474843
  - # 10
    frequency:   23.2530509577
  - # 11
    frequency:   23.3044519696
  - # 12
    frequency:   23.6512599228

- q-position: [    0.0799200,    0.0799200,    0.0000000 ]
  distance:    0.0501066
  band:
  - # 1
    frequency:    1.9545965479
  - # 2
    frequency:    1.9545970279
  - # 3
    frequency:    3.5604333465
  - # 4
    frequency:    5.0246433191
  - # 5
    frequency:    5.6700306972
  - # 6
    frequency:    9.8854927295
  - # 7
    frequency:   22.2888372470
  - # 8
    frequency:   22.7389809567
  - # 9
    frequency:   23.1610810048
  - # 10
    frequency:   23.2543825346
  - # 11
    frequency:   23.3175135392
  - # 12
    frequency:   23.6524230310

- q-position: [    0.0865800,    0.0865800,    0.0000000 ]
  distance:    0.0542821
  band:
  - # 1
    frequency:    2.1134093938
  - # 2
    frequency:    2.1142458704
  - # 3
    frequency:    3.8370028632
  - # 4
    frequency:    5.0967978152
  - # 5
    frequency:    5.8208557175
  - # 6
    frequency:    9.8659168932
  - # 7
    frequency:   22.2406648005
  - # 8
    frequency:   22.7293249905
  - # 9
    frequency:   23.1322006993
  - # 10
    frequency:   23.2453893714
  - # 11
    frequency:   23.3385611876
  - # 12
    frequency:   23.6531228813

- q-position: [    0.0932400,    0.0932400,    0.0000000 ]
  distance:    0.0584577
  band:
  - # 1
    frequency:    2.2712499585
  - # 2
    frequency:    2.2730475621
  - # 3
    frequency:    4.1088354541
  - # 4
    frequency:    5.1730594046
  - # 5
    frequency:    5.9736842739
  - # 6
    frequency:    9.8453459681
  - # 7
    frequency:   22.1928127335
  - # 8
    frequency:   22.7185405825
  - # 9
    frequency:   23.1024884834
  - # 10
    frequency:   23.2325774870
  - # 11
    frequency:   23.3611447942
  - # 12
    frequency:   23.6533468686

- q-position: [    0.0999000,    0.0999000,    0.0000000 ]
  distance:    0.0626332
  band:
  - # 1
    frequency:    2.4280456706
  - # 2
    frequency:    2.4309109716
  - # 3
    frequency:    4.3755857205
  - # 4
    frequency:    5.2531364558
  - # 5
    frequency:    6.1271044451
  - # 6
    frequency:    9.8239468321
  - # 7
    frequency:   22.1454145920
  - # 8
    frequency:   22.7064259627
  - # 9
    frequency:   23.0722804569
  - # 10
    frequency:   23.2180275083
  - # 11
    frequency:   23.3832542645
  - # 12
    frequency:   23.6530924317

- q-position: [    0.1065600,    0.1065600,    0.0000000 ]
  distance:    0.0668088
  band:
  - # 1
    frequency:    2.5837246143
  - # 2
    frequency:    2.5877398114
  - # 3
    frequency:    4.6368883415
  - # 4
    frequency:    5.3367627031
  - # 5
    frequency:    6.2797636444
  - # 6
    frequency:    9.8019130688
  - # 7
    frequency:   22.0986017174
  - # 8
    frequency:   22.6927124796
  - # 9
    frequency:   23.0419797191
  - # 10
    frequency:   23.2024462855
  - # 11
    frequency:   23.4042664940
  - # 12
    frequency:   23.6523649711

- q-position: [    0.1132200,    0.1132200,    0.0000000 ]
  distance:    0.0709843
  band:
  - # 1
    frequency:    2.7382155934
  - # 2
    frequency:    2.7434324505
  - # 3
    frequency:    4.8923160604
  - # 4
    frequency:    5.4237416450
  - # 5
    frequency:    6.4303640095
  - # 6
    frequency:    9.7794682746
  - # 7
    frequency:   22.0525032666
  - # 8
    frequency:   22.6770586588
  - # 9
    frequency:   23.0120636665
  - # 10
    frequency:   23.1861674435
  - # 11
    frequency:   23.4239437136
  - # 12
    frequency:   23.6511761398

- q-position: [    0.1198800,    0.1198800,    0.0000000 ]
  distance:    0.0751599
  band:
  - # 1
    frequency:    2.8914481857
  - # 2
    frequency:    2.8978817479
  - # 3
    frequency:    5.1412396488
  - # 4
    frequency:    5.5140886744
  - # 5
    frequency:    6.5776565577
  - # 6
    frequency:    9.7568692205
  - # 7
    frequency:   22.0072459419
  - # 8
    frequency:   22.6590570486
  - # 9
    frequency:   22.9830781773
  - # 10
    frequency:   23.1694016006
  - # 11
    frequency:   23.4421823299
  - # 12
    frequency:   23.6495424399

- q-position: [    0.1265400,    0.1265400,    0.0000000 ]
  distance:    0.0793354
  band:
  - # 1
    frequency:    3.0433527857
  - # 2
    frequency:    3.0509749031
  - # 3
    frequency:    5.3821816435
  - # 4
    frequency:    5.6086791648
  - # 5
    frequency:    6.7204352262
  - # 6
    frequency:    9.7344084174
  - # 7
    frequency:   21.9629535246
  - # 8
    frequency:   22.6382636605
  - # 9
    frequency:   22.9556089376
  - # 10
    frequency:   23.1523116438
  - # 11
    frequency:   23.4589367754
  - # 12
    frequency:   23.6474840652

- q-position: [    0.1332000,    0.1332000,    0.0000000 ]
  distance:    0.0835110
  band:
  - # 1
    frequency:    3.1938606337
  - # 2
    frequency:    3.2025933174
  - # 3
    frequency:    5.6075154215
  - # 4
    frequency:    5.7145509766
  - # 5
    frequency:    6.8575319988
  - # 6
    frequency:    9.7124153642
  - # 7
    frequency:   21.9197462745
  - # 8
    frequency:   22.6142561919
  - # 9
    frequency:   22.9302237751
  - # 10
    frequency:   23.1350396429
  - # 11
    frequency:   23.4741917248
  - # 12
    frequency:   23.6450239366

- q-position: [    0.1398600,    0.1398600,    0.0000000 ]
  distance:    0.0876865
  band:
  - # 1
    frequency:    3.3429038310
  - # 2
    frequency:    3.3526124605
  - # 3
    frequency:    5.7689611017
  - # 4
    frequency:    5.8794099232
  - # 5
    frequency:    6.9878145117
  - # 6
    frequency:    9.6912554137
  - # 7
    frequency:   21.8777402431
  - # 8
    frequency:   22.5867133312
  - # 9
    frequency:   22.9073937419
  - # 10
    frequency:   23.1177176540
  - # 11
    frequency:   23.4879503819
  - # 12
    frequency:   23.6421868899

- q-position: [    0.1465200,    0.1465200,    0.0000000 ]
  distance:    0.0918621
  band:
  - # 1
    frequency:    3.4904153414
  - # 2
    frequency:    3.5009017353
  - # 3
    frequency:    5.8764734302
  - # 4
    frequency:    6.0927430719
  - # 5
    frequency:    7.1101878201
  - # 6
    frequency:    9.6713247893
  - # 7
    frequency:   21.8370465365
  - # 8
    frequency:   22.5554879048
  - # 9
    frequency:   22.8874202193
  - # 10
    frequency:   23.1004722759
  - # 11
    frequency:   23.5002289448
  - # 12
    frequency:   23.6389989840

- q-position: [    0.1531800,    0.1531800,    0.0000000 ]
  distance:    0.0960376
  band:
  - # 1
    frequency:    3.6363289782
  - # 2
    frequency:    3.6473243303
  - # 3
    frequency:    5.9769937874
  - # 4
    frequency:    6.3070677724
  - # 5
    frequency:    7.2236022793
  - # 6
    frequency:    9.6530399258
  - # 7
    frequency:   21.7977705621
  - # 8
    frequency:   22.5206397755
  - # 9
    frequency:   22.8704021547
  - # 10
    frequency:   23.0834264578
  - # 11
    frequency:   23.5110537293
  - # 12
    frequency:   23.6354869081

- q-position: [    0.1598400,    0.1598400,    0.0000000 ]
  distance:    0.1002132
  band:
  - # 1
    frequency:    3.7805793809
  - # 2
    frequency:    3.7917370512
  - # 3
    frequency:    6.0765199376
  - # 4
    frequency:    6.5158628231
  - # 5
    frequency:    7.3270695559
  - # 6
    frequency:    9.6368191840
  - # 7
    frequency:   21.7600112868
  - # 8
    frequency:   22.4824140361
  - # 9
    frequency:   22.8562579016
  - # 10
    frequency:   23.0666999577
  - # 11
    frequency:   23.5204595368
  - # 12
    frequency:   23.6316774736

- q-position: [    0.1665000,    0.1665000,    0.0000000 ]
  distance:    0.1043887
  band:
  - # 1
    frequency:    3.9231019806
  - # 2
    frequency:    3.9339901175
  - # 3
    frequency:    6.1758192915
  - # 4
    frequency:    6.7178560319
  - # 5
    frequency:    7.4196883095
  - # 6
    frequency:    9.6230554225
  - # 7
    frequency:   21.7238605389
  - # 8
    frequency:   22.4411814566
  - # 9
    frequency:   22.8447847076
  - # 10
    frequency:   23.0504090632
  - # 11
    frequency:   23.5284886431
  - # 12
    frequency:   23.6275971815

- q-position: [    0.1731600,    0.1731600,    0.0000000 ]
  distance:    0.1085643
  band:
  - # 1
    frequency:    4.0638329579
  - # 2
    frequency:    4.0739269126
  - # 3
    frequency:    6.2748955425
  - # 4
    frequency:    6.9125583424
  - # 5
    frequency:    7.5006796853
  - # 6
    frequency:    9.6120792797
  - # 7
    frequency:   21.6894023759
  - # 8
    frequency:   22.3973726681
  - # 9
    frequency:   22.8357243670
  - # 10
    frequency:   23.0346658718
  - # 11
    frequency:   23.5351901133
  - # 12
    frequency:   23.6232718625

- q-position: [    0.1798200,    0.1798200,    0.0000000 ]
  distance:    0.1127398
  band:
  - # 1
    frequency:    4.2027091958
  - # 2
    frequency:    4.2113836697
  - # 3
    frequency:    6.3735593734
  - # 4
    frequency:    7.0996938501
  - # 5
    frequency:    7.5694302056
  - # 6
    frequency:    9.6041155518
  - # 7
    frequency:   21.6567125459
  - # 8
    frequency:   22.3514284615
  - # 9
    frequency:   22.8288126518
  - # 10
    frequency:   23.0195772799
  - # 11
    frequency:   23.5406192915
  - # 12
    frequency:   23.6187263907

- q-position: [    0.1864800,    0.1864800,    0.0000000 ]
  distance:    0.1169154
  band:
  - # 1
    frequency:    4.3396682281
  - # 2
    frequency:    4.3461890779
  - # 3
    frequency:    6.4715562000
  - # 4
    frequency:    7.2790727753
  - # 5
    frequency:    7.6255362337
  - # 6
    frequency:    9.5992384592
  - # 7
    frequency:   21.6258580629
  - # 8
    frequency:   22.3037719257
  - # 9
    frequency:   22.8238067833
  - # 10
    frequency:   23.0052437711
  - # 11
    frequency:   23.5448373873
  - # 12
    frequency:   23.6139844744

- q-position: [    0.1931400,    0.1931400,    0.0000000 ]
  distance:    0.1210909
  band:
  - # 1
    frequency:    4.4746481886
  - # 2
    frequency:    4.4781637887
  - # 3
    frequency:    6.5686053966
  - # 4
    frequency:    7.4505529688
  - # 5
    frequency:    7.6688410489
  - # 6
    frequency:    9.5973347195
  - # 7
    frequency:   21.5968969121
  - # 8
    frequency:   22.2547977791
  - # 9
    frequency:   22.8204955751
  - # 10
    frequency:   22.9917580602
  - # 11
    frequency:   23.5479111172
  - # 12
    frequency:   23.6090685299

- q-position: [    0.1998000,    0.1998000,    0.0000000 ]
  distance:    0.1252665
  band:
  - # 1
    frequency:    4.6071198035
  - # 2
    frequency:    4.6075877583
  - # 3
    frequency:    6.6644148341
  - # 4
    frequency:    7.6140261491
  - # 5
    frequency:    7.6994545332
  - # 6
    frequency:    9.5980843823
  - # 7
    frequency:   21.5698778974
  - # 8
    frequency:   22.2048718135
  - # 9
    frequency:   22.8186993050
  - # 10
    frequency:   22.9792036400
  - # 11
    frequency:   23.5499123776
  - # 12
    frequency:   23.6039996464

- q-position: [    0.2064600,    0.2064600,    0.0000000 ]
  distance:    0.1294420
  band:
  - # 1
    frequency:    4.7328597194
  - # 2
    frequency:    4.7384261148
  - # 3
    frequency:    6.7586868236
  - # 4
    frequency:    7.7177480277
  - # 5
    frequency:    7.7694128040
  - # 6
    frequency:    9.6009668281
  - # 7
    frequency:   21.5448406360
  - # 8
    frequency:   22.1543349018
  - # 9
    frequency:   22.8182648446
  - # 10
    frequency:   22.9676532701
  - # 11
    frequency:   23.5509179406
  - # 12
    frequency:   23.5987976512

- q-position: [    0.2131200,    0.2131200,    0.0000000 ]
  distance:    0.1336176
  band:
  - # 1
    frequency:    4.8551758138
  - # 2
    frequency:    4.8671028823
  - # 3
    frequency:    6.8511205196
  - # 4
    frequency:    7.7243228809
  - # 5
    frequency:    7.9166607287
  - # 6
    frequency:    9.6052933671
  - # 7
    frequency:   21.5218156959
  - # 8
    frequency:   22.1035082568
  - # 9
    frequency:   22.8190593321
  - # 10
    frequency:   22.9571674496
  - # 11
    frequency:   23.5510091663
  - # 12
    frequency:   23.5934812835

- q-position: [    0.2197800,    0.2197800,    0.0000000 ]
  distance:    0.1377931
  band:
  - # 1
    frequency:    4.9738489460
  - # 2
    frequency:    4.9935580801
  - # 3
    frequency:    6.9414126297
  - # 4
    frequency:    7.7199582558
  - # 5
    frequency:    8.0557453824
  - # 6
    frequency:    9.6102608357
  - # 7
    frequency:   21.5008248672
  - # 8
    frequency:   22.0526983101
  - # 9
    frequency:   22.8209639977
  - # 10
    frequency:   22.9477929160
  - # 11
    frequency:   23.5502717311
  - # 12
    frequency:   23.5880684864

- q-position: [    0.2264400,    0.2264400,    0.0000000 ]
  distance:    0.1419686
  band:
  - # 1
    frequency:    5.0886472604
  - # 2
    frequency:    5.1177320679
  - # 3
    frequency:    7.0292571952
  - # 4
    frequency:    7.7055486915
  - # 5
    frequency:    8.1866713211
  - # 6
    frequency:    9.6150156636
  - # 7
    frequency:   21.4818815475
  - # 8
    frequency:   22.0022005609
  - # 9
    frequency:   22.8238687670
  - # 10
    frequency:   22.9395612155
  - # 11
    frequency:   23.5487953733
  - # 12
    frequency:   23.5825768245

- q-position: [    0.2331000,    0.2331000,    0.0000000 ]
  distance:    0.1461442
  band:
  - # 1
    frequency:    5.1993246795
  - # 2
    frequency:    5.2395654835
  - # 3
    frequency:    7.1143447990
  - # 4
    frequency:    7.6820427900
  - # 5
    frequency:    8.3094743768
  - # 6
    frequency:    9.6187170092
  - # 7
    frequency:   21.4649912174
  - # 8
    frequency:   21.9523022410
  - # 9
    frequency:   22.8276677815
  - # 10
    frequency:   22.9324873937
  - # 11
    frequency:   23.5466736546
  - # 12
    frequency:   23.5770240335

- q-position: [    0.2397600,    0.2397600,    0.0000000 ]
  distance:    0.1503197
  band:
  - # 1
    frequency:    5.3056191895
  - # 2
    frequency:    5.3589991658
  - # 3
    frequency:    7.1963614010
  - # 4
    frequency:    7.6503916392
  - # 5
    frequency:    8.4242244022
  - # 6
    frequency:    9.6205903155
  - # 7
    frequency:   21.4501519741
  - # 8
    frequency:   21.9032838560
  - # 9
    frequency:   22.8322557651
  - # 10
    frequency:   22.9265688571
  - # 11
    frequency:   23.5440037342
  - # 12
    frequency:   23.5714287042

- q-position: [    0.2464200,    0.2464200,    0.0000000 ]
  distance:    0.1544953
  band:
  - # 1
    frequency:    5.4072509351
  - # 2
    frequency:    5.4759740550
  - # 3
    frequency:    7.2749869527
  - # 4
    frequency:    7.6115112047
  - # 5
    frequency:    8.5310284447
  - # 6
    frequency:    9.6199670153
  - # 7
    frequency:   21.4373550903
  - # 8
    frequency:   21.8554197387
  - # 9
    frequency:   22.8375251002
  - # 10
    frequency:   22.9217844562
  - # 11
    frequency:   23.5408861496
  - # 12
    frequency:   23.5658110976

- q-position: [    0.2530800,    0.2530800,    0.0000000 ]
  distance:    0.1586708
  band:
  - # 1
    frequency:    5.5039201711
  - # 2
    frequency:    5.5904310586
  - # 3
    frequency:    7.3498939540
  - # 4
    frequency:    7.5662589508
  - # 5
    frequency:    8.6300342012
  - # 6
    frequency:    9.6163100619
  - # 7
    frequency:   21.4265855634
  - # 8
    frequency:   21.8089777708
  - # 9
    frequency:   22.8433634752
  - # 10
    frequency:   22.9180938462
  - # 11
    frequency:   23.5374245872
  - # 12
    frequency:   23.5601940829

- q-position: [    0.2597400,    0.2597400,    0.0000000 ]
  distance:    0.1628464
  band:
  - # 1
    frequency:    5.5953051540
  - # 2
    frequency:    5.7023108671
  - # 3
    frequency:    7.4207461559
  - # 4
    frequency:    7.5154224618
  - # 5
    frequency:    8.7214335519
  - # 6
    frequency:    9.6092274227
  - # 7
    frequency:   21.4178226222
  - # 8
    frequency:   21.7642184191
  - # 9
    frequency:   22.8496519890
  - # 10
    frequency:   22.9154371781
  - # 11
    frequency:   23.5337256207
  - # 12
    frequency:   23.5546041775

- q-position: [    0.2664000,    0.2664000,    0.0000000 ]
  distance:    0.1670219
  band:
  - # 1
    frequency:    5.6810601164
  - # 2
    frequency:    5.8115536982
  - # 3
    frequency:    7.4597168709
  - # 4
    frequency:    7.4871976924
  - # 5
    frequency:    8.8054658936
  - # 6
    frequency:    9.5984765905
  - # 7
    frequency:   21.4110401616
  - # 8
    frequency:   21.7213932236
  - # 9
    frequency:   22.8562636371
  - # 10
    frequency:   22.9137351791
  - # 11
    frequency:   23.5298983796
  - # 12
    frequency:   23.5490726537

- q-position: [    0.2730600,    0.2730600,    0.0000000 ]
  distance:    0.1711975
  band:
  - # 1
    frequency:    5.7608135392
  - # 2
    frequency:    5.9180989422
  - # 3
    frequency:    7.3997879917
  - # 4
    frequency:    7.5488930180
  - # 5
    frequency:    8.8824208910
  - # 6
    frequency:    9.5839630098
  - # 7
    frequency:   21.4062070833
  - # 8
    frequency:   21.6807428638
  - # 9
    frequency:   22.8630621387
  - # 10
    frequency:   22.9128896793
  - # 11
    frequency:   23.5260541003
  - # 12
    frequency:   23.5436366612

- q-position: [    0.2797200,    0.2797200,    0.0000000 ]
  distance:    0.1753730
  band:
  - # 1
    frequency:    5.8341670346
  - # 2
    frequency:    6.0218846679
  - # 3
    frequency:    7.3362186459
  - # 4
    frequency:    7.6054681428
  - # 5
    frequency:    8.9526401514
  - # 6
    frequency:    9.5657346246
  - # 7
    frequency:   21.4032875284
  - # 8
    frequency:   21.6424949219
  - # 9
    frequency:   22.8699011134
  - # 10
    frequency:   22.9127846477
  - # 11
    frequency:   23.5223054950
  - # 12
    frequency:   23.5383402831

- q-position: [    0.2863800,    0.2863800,    0.0000000 ]
  distance:    0.1795486
  band:
  - # 1
    frequency:    5.9006952752
  - # 2
    frequency:    6.1228469341
  - # 3
    frequency:    7.2695364025
  - # 4
    frequency:    7.6565537613
  - # 5
    frequency:    9.0165172279
  - # 6
    frequency:    9.5439739222
  - # 7
    frequency:   21.4022409928
  - # 8
    frequency:   21.6068614576
  - # 9
    frequency:   22.8766236550
  - # 10
    frequency:   22.9132877999
  - # 11
    frequency:   23.5187658632
  - # 12
    frequency:   23.5332354204

- q-position: [    0.2930400,    0.2930400,    0.0000000 ]
  distance:    0.1837241
  band:
  - # 1
    frequency:    5.9599475337
  - # 2
    frequency:    6.2209188272
  - # 3
    frequency:    7.2002215730
  - # 4
    frequency:    7.7017809529
  - # 5
    frequency:    9.0744952892
  - # 6
    frequency:    9.5189880806
  - # 7
    frequency:   21.4030223304
  - # 8
    frequency:   21.5740365039
  - # 9
    frequency:   22.8830623984
  - # 10
    frequency:   22.9142528338
  - # 11
    frequency:   23.5155478632
  - # 12
    frequency:   23.5283823588

- q-position: [    0.2997000,    0.2997000,    0.0000000 ]
  distance:    0.1878997
  band:
  - # 1
    frequency:    6.0114515360
  - # 2
    frequency:    6.3160291081
  - # 3
    frequency:    7.1287147953
  - # 4
    frequency:    7.7407901390
  - # 5
    frequency:    9.1270618195
  - # 6
    frequency:    9.4911972152
  - # 7
    frequency:   21.4055816509
  - # 8
    frequency:   21.5441935901
  - # 9
    frequency:   22.8890402195
  - # 10
    frequency:   22.9155223420
  - # 11
    frequency:   23.5127618664
  - # 12
    frequency:   23.5238498441

- q-position: [    0.3063600,    0.3063600,    0.0000000 ]
  distance:    0.1920752
  band:
  - # 1
    frequency:    6.0547204256
  - # 2
    frequency:    6.4081002948
  - # 3
    frequency:    7.0554238655
  - # 4
    frequency:    7.7732438821
  - # 5
    frequency:    9.1747398645
  - # 6
    frequency:    9.4611202922
  - # 7
    frequency:   21.4098641268
  - # 8
    frequency:   21.5174833899
  - # 9
    frequency:   22.8943717371
  - # 10
    frequency:   22.9169314166
  - # 11
    frequency:   23.5105138364
  - # 12
    frequency:   23.5197144654

- q-position: [    0.3130200,    0.3130200,    0.0000000 ]
  distance:    0.1962508
  band:
  - # 1
    frequency:    6.0892636567
  - # 2
    frequency:    6.4970459134
  - # 3
    frequency:    6.9807296862
  - # 4
    frequency:    7.7988438739
  - # 5
    frequency:    9.2180756672
  - # 6
    frequency:    9.4293580497
  - # 7
    frequency:   21.4158097311
  - # 8
    frequency:   21.4940315865
  - # 9
    frequency:   22.8988657936
  - # 10
    frequency:   22.9183119193
  - # 11
    frequency:   23.5089027206
  - # 12
    frequency:   23.5160591441

- q-position: [    0.3196800,    0.3196800,    0.0000000 ]
  distance:    0.2004263
  band:
  - # 1
    frequency:    6.1146024991
  - # 2
    frequency:    6.5827665019
  - # 3
    frequency:    6.9049913236
  - # 4
    frequency:    7.8173521091
  - # 5
    frequency:    9.2576230453
  - # 6
    frequency:    9.3965722782
  - # 7
    frequency:   21.4233529227
  - # 8
    frequency:   21.4739370292
  - # 9
    frequency:   22.9023290626
  - # 10
    frequency:   22.9194973181
  - # 11
    frequency:   23.5080174095
  - # 12
    frequency:   23.5129705678

- q-position: [    0.3263400,    0.3263400,    0.0000000 ]
  distance:    0.2046019
  band:
  - # 1
    frequency:    6.1302904921
  - # 2
    frequency:    6.6651437052
  - # 3
    frequency:    6.8285502270
  - # 4
    frequency:    7.8286158717
  - # 5
    frequency:    9.2939254824
  - # 6
    frequency:    9.3634610944
  - # 7
    frequency:   21.4324223035
  - # 8
    frequency:   21.4572702452
  - # 9
    frequency:   22.9045708367
  - # 10
    frequency:   22.9203279057
  - # 11
    frequency:   23.5079334064
  - # 12
    frequency:   23.5105354998

- q-position: [    0.3330000,    0.3330000,    0.0000000 ]
  distance:    0.2087774
  band:
  - # 1
    frequency:    6.1359385771
  - # 2
    frequency:    6.7440313768
  - # 3
    frequency:    6.7517336895
  - # 4
    frequency:    7.8325959886
  - # 5
    frequency:    9.3274975058
  - # 6
    frequency:    9.3307304187
  - # 7
    frequency:   21.4429402640
  - # 8
    frequency:   21.4440723457
  - # 9
    frequency:   22.9054089001
  - # 10
    frequency:   22.9206561211
  - # 11
    frequency:   23.5087094481
  - # 12
    frequency:   23.5088360546

- q-position: [    0.3330000,    0.3330000,    0.0000000 ]
  distance:    0.2087774
  band:
  - # 1
    frequency:    6.1359385771
  - # 2
    frequency:    6.7440313768
  - # 3
    frequency:    6.7517336895
  - # 4
    frequency:    7.8325959886
  - # 5