  32   32
1 1
    26.917016274900917    -0.000000000000000     0.000000000000002
     0.000000000000000    26.917016274900917     0.000000000000001
    -0.000000000000001    -0.000000000000001    27.572845937499455
1 2
    -0.907723341962156    -0.000000000000000     0.000000000000000
     0.000000000000000     0.240563134317925    -0.015132892264714
     0.000000000000000    -0.015132341727102     0.229671324661194
1 3
    -0.046508484752095     0.497222627550918     0.013105469078905
     0.497222631729749    -0.620651722892136     0.007566446132357
     0.013104992409487     0.007566170863551     0.229671324661193
1 4
    -0.046508484752096    -0.497222627550918    -0.013105469078904
    -0.497222631729749    -0.620651722892136     0.007566446132357
    -0.013104992409487     0.007566170863551     0.229671324661195
1 5
     0.000000085924981     0.000000000000000     0.000000000000001
    -0.000000000000000     0.000000085924981     0.000000000000000
    -0.000000000000000     0.000000000000000     0.000000017607803
1 6
     0.000000085924981     0.000000000000000     0.000000000000001
    -0.000000000000000     0.000000085924981     0.000000000000000
    -0.000000000000000     0.000000000000000     0.000000017607803
1 7
     0.000000085924981     0.000000000000000     0.000000000000001
    -0.000000000000000     0.000000085924981     0.000000000000000
    -0.000000000000000     0.000000000000000     0.000000017607803
1 8
     0.000000085924981     0.000000000000000     0.000000000000001
    -0.000000000000000     0.000000085924981     0.000000000000000
    -0.000000000000000     0.000000000000000     0.000000017607803
1 9
    -0.024783858058687     0.079194949187093     0.560903001801693
     0.079194949852675     0.066662592788841    -0.323837500440297
    -0.082172313149502     0.047442206917439    -0.269438123968448
1 10
    -0.024783858058687    -0.079194949187093    -0.560903001801691
    -0.079194949852675     0.066662592788841    -0.323837500440297
     0.082172313149502     0.047442206917439    -0.269438123968449
1 11
     0.112385818212605    -0.000000000000000     0.000000000000000
     0.000000000000000    -0.070507083482451     0.647675000880595
    -0.000000000000000    -0.094884413834878    -0.269438123968448
1 12
     0.000000085924981    -0.000000000000000     0.000000000000001
    -0.000000000000000     0.000000085924981     0.000000000000000
     0.000000000000000    -0.000000000000000     0.000000017607803
1 13
    -0.024874928130959     0.079242996585831     0.082152397176077
     0.079242997251816     0.066627003073992    -0.047430708823492
    -0.560812767173774     0.323785400732155    -0.269424037725080
1 14
    -0.024874928130959    -0.079242996585831    -0.082152397176074
    -0.079242997251816     0.066627003073992    -0.047430708823492
     0.560812767173774     0.323785400732155    -0.269424037725080
1 15
     0.112377968676467    -0.000000000000000     0.000000000000002
     0.000000000000000    -0.070625893733434     0.094861417646985
    -0.000000000000000    -0.647570801464310    -0.269424037725081
1 16
     0.000000085924981    -0.000000000000000     0.000000000000001
    -0.000000000000000     0.000000085924981     0.000000000000000
     0.000000000000000    -0.000000000000000     0.000000017607803
1 17
    -1.983875023907200     0.000000000000000    -0.000000000000003
    -0.000000000000000    -1.983875023907200    -0.000000000000001
     0.000000000000000    -0.000000000000000   -16.134793397577536
1 18
     0.000000085924981     0.000000000000000    -0.000000000000001
    -0.000000000000000     0.000000085924981     0.000000000000000
    -0.000000000000000     0.000000000000000     0.000000017607805
1 19
     0.000000085924981     0.000000000000000    -0.000000000000001
    -0.000000000000000     0.000000085924981     0.000000000000000
    -0.000000000000000     0.000000000000000     0.000000017607805
1 20
     0.000000085924981     0.000000000000000    -0.000000000000001
    -0.000000000000000     0.000000085924981     0.000000000000000
    -0.000000000000000     0.000000000000000     0.000000017607805
1 21
     0.000000085924981     0.000000000000000    -0.000000000000001
    -0.000000000000000     0.000000085924981     0.000000000000000
    -0.000000000000000     0.000000000000000     0.000000017607805
1 22
     0.000000085924981     0.000000000000000    -0.000000000000001
    -0.000000000000000     0.000000085924981     0.000000000000000
    -0.000000000000000     0.000000000000000     0.000000017607805
1 23
     0.000000085924981     0.000000000000000    -0.000000000000001
    -0.000000000000000     0.000000085924981     0.000000000000000
    -0.000000000000000     0.000000000000000     0.000000017607805
1 24
     0.000000085924981     0.000000000000000    -0.000000000000001
    -0.000000000000000     0.000000085924981     0.000000000000000
    -0.000000000000000     0.000000000000000     0.000000017607805
1 25
     0.000000085924981    -0.000000000000000    -0.000000000000001
    -0.000000000000000     0.000000085924981     0.000000000000000
     0.000000000000000    -0.000000000000000     0.000000017607805
1 26
     0.000000085924981    -0.000000000000000    -0.000000000000001
    -0.000000000000000     0.000000085924981     0.000000000000000
     0.000000000000000    -0.000000000000000     0.000000017607805
1 27
     0.000000085924981    -0.000000000000000    -0.000000000000001
    -0.000000000000000     0.000000085924981     0.000000000000000
     0.000000000000000    -0.000000000000000     0.000000017607805
1 28
     0.000000085924981    -0.000000000000000    -0.000000000000001
    -0.000000000000000     0.000000085924981     0.000000000000000
     0.000000000000000    -0.000000000000000     0.000000017607805
1 29
   -11.015832936798194     5.190176822805218    -3.661846307245413
     5.190176866425261    -5.022732940037447     2.114167960103275
    -3.662677821050774     2.114648017052419    -3.503493456414155
1 30
   -11.015832936798191    -5.190176822805218     3.661846307245412
    -5.190176866425261    -5.022732940037446     2.114167960103275
     3.662677821050775     2.114648017052420    -3.503493456414156
1 31
    -2.026182941657076    -0.000000000000000    -0.000000000000000
    -0.000000000000000   -14.012382935178557    -4.228335920206551
    -0.000000000000000    -4.229296034104840    -3.503493456414155
1 32
     0.000000085924981    -0.000000000000000    -0.000000000000001
    -0.000000000000000     0.000000085924981     0.000000000000000
     0.000000000000000    -0.000000000000000     0.000000017607805
2 1
    -0.907723341962156    -0.000000000000000     0.000000000000000
    -0.000000000000000     0.240563134317925    -0.015132892264714
     0.000000000000000    -0.015132341727102     0.229671324661194
2 2
    26.917016274900909     0.000000000000001     0.000000000000002
     0.000000000000002    26.917016274900917     0.000000000000001
    -0.000000000000001    -0.000000000000001    27.572845937499455
2 3
    -0.046508484752096    -0.497222627550918    -0.013105469078904
    -0.497222631729749    -0.620651722892136     0.007566446132357
    -0.013104992409487     0.007566170863551     0.229671324661195
2 4
    -0.046508484752095     0.497222627550918     0.013105469078905
     0.497222631729749    -0.620651722892136     0.007566446132357
     0.013104992409487     0.007566170863551     0.229671324661193
2 5
     0.000000085924981     0.000000000000000     0.000000000000001
    -0.000000000000000     0.000000085924981     0.000000000000000
    -0.000000000000000     0.000000000000000     0.000000017607803
2 6
     0.000000085924981     0.000000000000000     0.000000000000001
    -0.000000000000000     0.000000085924981     0.000000000000000
    -0.000000000000000     0.000000000000000     0.000000017607803
2 7
     0.000000085924981     0.000000000000000     0.000000000000001
    -0.000000000000000     0.000000085924981     0.000000000000000
    -0.000000000000000     0.000000000000000     0.000000017607803
2 8
     0.000000085924981     0.000000000000000     0.000000000000001
    -0.000000000000000     0.000000085924981     0.000000000000000
    -0.000000000000000     0.000000000000000     0.000000017607803
2 9
    -0.024783858058687    -0.079194949187093    -0.560903001801691
    -0.079194949852675     0.066662592788841    -0.323837500440297
     0.082172313149502     0.047442206917439    -0.269438123968449
2 10
    -0.024783858058687     0.079194949187093     0.560903001801693
     0.079194949852675     0.066662592788841    -0.323837500440297
    -0.082172313149502     0.047442206917439    -0.269438123968448
2 11
     0.000000085924981    -0.000000000000000     0.000000000000001
    -0.000000000000000     0.000000085924981     0.000000000000000
     0.000000000000000    -0.000000000000000     0.000000017607803
2 12
     0.112385818212605    -0.000000000000000     0.000000000000000
     0.000000000000000    -0.070507083482451     0.647675000880595
    -0.000000000000000    -0.094884413834878    -0.269438123968448
2 13
    -0.024874928130959    -0.079242996585830    -0.082152397176074
    -0.079242997251816     0.066627003073992    -0.047430708823492
     0.560812767173774     0.323785400732155    -0.269424037725080
2 14
    -0.024874928130959     0.079242996585831     0.082152397176077
     0.079242997251816     0.066627003073992    -0.047430708823492
    -0.560812767173774     0.323785400732155    -0.269424037725080
2 15
     0.000000085924981    -0.000000000000000     0.000000000000001
    -0.000000000000000     0.000000085924981     0.000000000000000
     0.000000000000000    -0.000000000000000     0.000000017607803
2 16
     0.112377968676467    -0.000000000000000     0.000000000000002
     0.000000000000000    -0.070625893733434     0.094861417646985
    -0.000000000000000    -0.647570801464310    -0.269424037725081
2 17
     0.000000085924981     0.000000000000000    -0.000000000000001
    -0.000000000000000     0.000000085924981     0.000000000000000
    -0.000000000000000     0.000000000000000     0.000000017607805
2 18
    -1.983875023907199    -0.000000000000000    -0.000000000000003
    -0.000000000000000    -1.983875023907200    -0.000000000000001
     0.000000000000000    -0.000000000000000   -16.134793397577536
2 19
     0.000000085924981     0.000000000000000    -0.000000000000001
    -0.000000000000000     0.000000085924981     0.000000000000000
    -0.000000000000000     0.000000000000000     0.000000017607805
2 20
     0.000000085924981     0.000000000000000    -0.000000000000001
    -0.000000000000000     0.000000085924981     0.000000000000000
    -0.000000000000000     0.000000000000000     0.000000017607805
2 21
     0.000000085924981     0.000000000000000    -0.000000000000001
    -0.000000000000000     0.000000085924981     0.000000000000000
    -0.000000000000000     0.000000000000000     0.000000017607805
2 22
     0.000000085924981     0.000000000000000    -0.000000000000001
    -0.000000000000000     0.000000085924981     0.000000000000000
    -0.000000000000000     0.000000000000000     0.000000017607805
2 23
     0.000000085924981     0.000000000000000    -0.000000000000001
    -0.000000000000000     0.000000085924981     0.000000000000000
    -0.000000000000000     0.000000000000000     0.000000017607805
2 24
     0.000000085924981     0.000000000000000    -0.000000000000001
    -0.000000000000000     0.000000085924981     0.000000000000000
    -0.000000000000000     0.000000000000000     0.000000017607805
2 25
     0.000000085924981    -0.000000000000000    -0.000000000000001
    -0.000000000000000     0.000000085924981     0.000000000000000
     0.000000000000000    -0.000000000000000     0.000000017607805
2 26
     0.000000085924981    -0.000000000000000    -0.000000000000001
    -0.000000000000000     0.000000085924981     0.000000000000000
     0.000000000000000    -0.000000000000000     0.000000017607805
2 27
     0.000000085924981    -0.000000000000000    -0.000000000000001
    -0.000000000000000     0.000000085924981     0.000000000000000
     0.000000000000000    -0.000000000000000     0.000000017607805
2 28
     0.000000085924981    -0.000000000000000    -0.000000000000001
    -0.000000000000000     0.000000085924981     0.000000000000000
     0.000000000000000    -0.000000000000000     0.000000017607805
2 29
   -11.015832936798189    -5.190176822805218     3.661846307245412
    -5.190176866425261    -5.022732940037447     2.114167960103275
     3.662677821050775     2.114648017052420    -3.503493456414156
2 30
   -11.015832936798192     5.190176822805217    -3.661846307245413
     5.190176866425260    -5.022732940037446     2.114167960103275
    -3.662677821050774     2.114648017052419    -3.503493456414155
2 31
     0.000000085924981    -0.000000000000000    -0.000000000000001
    -0.000000000000000     0.000000085924981     0.000000000000000
     0.000000000000000    -0.000000000000000     0.000000017607805
2 32
    -2.026182941657075    -0.000000000000001    -0.000000000000000
    -0.000000000000000   -14.012382935178557    -4.228335920206551
    -0.000000000000000    -4.229296034104840    -3.503493456414155
3 1
    -0.046508484752095     0.497222627550918     0.013105469078905
     0.497222631729749    -0.620651722892136     0.007566446132357
     0.013104992409487     0.007566170863551     0.229671324661193
3 2
    -0.046508484752096    -0.497222627550918    -0.013105469078904
    -0.497222631729749    -0.620651722892136     0.007566446132357
    -0.013104992409487     0.007566170863551     0.229671324661195
3 3
    26.917016274900909     0.000000000000001     0.000000000000002
     0.000000000000002    26.917016274900917     0.000000000000001
    -0.000000000000001    -0.000000000000001    27.572845937499455
3 4
    -0.907723341962156    -0.000000000000000     0.000000000000000
    -0.000000000000000     0.240563134317925    -0.015132892264714
     0.000000000000000    -0.015132341727102     0.229671324661194
3 5
     0.000000085924981     0.000000000000000     0.000000000000001
    -0.000000000000000     0.000000085924981     0.000000000000000
    -0.000000000000000     0.000000000000000     0.000000017607803
3 6
     0.000000085924981     0.000000000000000     0.000000000000001
    -0.000000000000000     0.000000085924981     0.000000000000000
    -0.000000000000000     0.000000000000000     0.000000017607803
3 7
     0.000000085924981     0.000000000000000     0.000000000000001
    -0.000000000000000     0.000000085924981     0.000000000000000
    -0.000000000000000     0.000000000000000     0.000000017607803
3 8
     0.000000085924981     0.000000000000000     0.000000000000001
    -0.000000000000000     0.000000085924981     0.000000000000000
    -0.000000000000000     0.000000000000000     0.000000017607803
3 9
     0.112385818212605    -0.000000000000000     0.000000000000000
     0.000000000000000    -0.070507083482451     0.647675000880595
    -0.000000000000000    -0.094884413834878    -0.269438123968448
3 10
     0.000000085924981    -0.000000000000000     0.000000000000001
    -0.000000000000000     0.000000085924981     0.000000000000000
     0.000000000000000    -0.000000000000000     0.000000017607803
3 11
    -0.024783858058687     0.079194949187093     0.560903001801693
     0.079194949852675     0.066662592788841    -0.323837500440297
    -0.082172313149502     0.047442206917439    -0.269438123968448
3 12
    -0.024783858058687    -0.079194949187093    -0.560903001801691
    -0.079194949852675     0.066662592788841    -0.323837500440297
     0.082172313149502     0.047442206917439    -0.269438123968449
3 13
     0.112377968676467    -0.000000000000000     0.000000000000002
     0.000000000000000    -0.070625893733434     0.094861417646985
    -0.000000000000000    -0.647570801464310    -0.269424037725081
3 14
     0.000000085924981    -0.000000000000000     0.000000000000001
    -0.000000000000000     0.000000085924981     0.000000000000000
     0.000000000000000    -0.000000000000000     0.000000017607803
3 15
    -0.024874928130959     0.079242996585831     0.082152397176077
     0.079242997251816     0.066627003073992    -0.047430708823492
    -0.560812767173774     0.323785400732155    -0.269424037725080
3 16
    -0.024874928130959    -0.079242996585830    -0.082152397176074
    -0.079242997251816     0.066627003073992    -0.047430708823492
     0.560812767173774     0.323785400732155    -0.269424037725080
3 17
     0.000000085924981     0.000000000000000    -0.000000000000001
    -0.000000000000000     0.000000085924981     0.000000000000000
    -0.000000000000000     0.000000000000000     0.000000017607805
3 18
     0.000000085924981     0.000000000000000    -0.000000000000001
    -0.000000000000000     0.000000085924981     0.000000000000000
    -0.000000000000000     0.000000000000000     0.000000017607805
3 19
    -1.983875023907199    -0.000000000000000    -0.000000000000003
    -0.000000000000000    -1.983875023907200    -0.000000000000001
     0.000000000000000    -0.000000000000000   -16.134793397577536
3 20
     0.000000085924981     0.000000000000000    -0.000000000000001
    -0.000000000000000     0.000000085924981     0.000000000000000
    -0.000000000000000     0.000000000000000     0.000000017607805
3 21
     0.000000085924981     0.000000000000000    -0.000000000000001
    -0.000000000000000     0.000000085924981     0.000000000000000
    -0.000000000000000     0.000000000000000     0.000000017607805
3 22
     0.000000085924981     0.000000000000000    -0.000000000000001
    -0.000000000000000     0.000000085924981     0.000000000000000
    -0.000000000000000     0.000000000000000     0.000000017607805
3 23
     0.000000085924981     0.000000000000000    -0.000000000000001
    -0.000000000000000     0.000000085924981     0.000000000000000
    -0.000000000000000     0.000000000000000     0.000000017607805
3 24
     0.000000085924981     0.000000000000000    -0.000000000000001
    -0.000000000000000     0.000000085924981     0.000000000000000
    -0.000000000000000     0.000000000000000     0.000000017607805
3 25
     0.000000085924981    -0.000000000000000    -0.000000000000001
    -0.000000000000000     0.000000085924981     0.000000000000000
     0.000000000000000    -0.000000000000000     0.000000017607805
3 26
     0.000000085924981    -0.000000000000000    -0.000000000000001
    -0.000000000000000     0.000000085924981     0.000000000000000
     0.000000000000000    -0.000000000000000     0.000000017607805
3 27
     0.000000085924981    -0.000000000000000    -0.000000000000001
    -0.000000000000000     0.000000085924981     0.000000000000000
     0.000000000000000    -0.000000000000000     0.000000017607805
3 28
     0.000000085924981    -0.000000000000000    -0.000000000000001
    -0.000000000000000     0.000000085924981     0.000000000000000
     0.000000000000000    -0.000000000000000     0.000000017607805
3 29
    -2.026182941657075    -0.000000000000001    -0.000000000000000
    -0.000000000000000   -14.012382935178557    -4.228335920206551
    -0.000000000000000    -4.229296034104840    -3.503493456414155
3 30
     0.000000085924981    -0.000000000000000    -0.000000000000001
    -0.000000000000000     0.000000085924981     0.000000000000000
     0.000000000000000    -0.000000000000000     0.000000017607805
3 31
   -11.015832936798192     5.190176822805217    -3.661846307245413
     5.190176866425260    -5.022732940037446     2.114167960103275
    -3.662677821050774     2.114648017052419    -3.503493456414155
3 32
   -11.015832936798189    -5.190176822805218     3.661846307245412
    -5.190176866425261    -5.022732940037447     2.114167960103275
     3.662677821050775     2.114648017052420    -3.503493456414156
4 1
    -0.046508484752096    -0.497222627550918    -0.013105469078904
    -0.497222631729749    -0.620651722892136     0.007566446132357
    -0.013104992409487     0.007566170863551     0.229671324661195
4 2
    -0.046508484752095     0.497222627550918     0.013105469078905
     0.497222631729749    -0.620651722892136     0.007566446132357
     0.013104992409487     0.007566170863551     0.229671324661193
4 3
    -0.907723341962156    -0.000000000000000     0.000000000000000
    -0.000000000000000     0.240563134317925    -0.015132892264714
     0.000000000000000    -0.015132341727102     0.229671324661194
4 4
    26.917016274900909     0.000000000000001     0.000000000000002
     0.000000000000002    26.917016274900917     0.000000000000001
    -0.000000000000001    -0.000000000000001    27.572845937499455
4 5
     0.000000085924981     0.000000000000000     0.000000000000001
    -0.000000000000000     0.000000085924981     0.000000000000000
    -0.000000000000000     0.000000000000000     0.000000017607803
4 6
     0.000000085924981     0.000000000000000     0.000000000000001
    -0.000000000000000     0.000000085924981     0.000000000000000
    -0.000000000000000     0.000000000000000     0.000000017607803
4 7
     0.000000085924981     0.000000000000000     0.000000000000001
    -0.000000000000000     0.000000085924981     0.000000000000000
    -0.000000000000000     0.000000000000000     0.000000017607803
4 8
     0.000000085924981     0.000000000000000     0.000000000000001
    -0.000000000000000     0.000000085924981     0.000000000000000
    -0.000000000000000     0.000000000000000     0.000000017607803
4 9
     0.000000085924981    -0.000000000000000     0.000000000000001
    -0.000000000000000     0.000000085924981     0.000000000000000
     0.000000000000000    -0.000000000000000     0.000000017607803
4 10
     0.112385818212605    -0.000000000000000     0.000000000000000
     0.000000000000000    -0.070507083482451     0.647675000880595
    -0.000000000000000    -0.094884413834878    -0.269438123968448
4 11
    -0.024783858058687    -0.079194949187093    -0.560903001801691
    -0.079194949852675     0.066662592788841    -0.323837500440297
     0.082172313149502     0.047442206917439    -0.269438123968449
4 12
    -0.024783858058687     0.079194949187093     0.560903001801693
     0.079194949852675     0.066662592788841    -0.323837500440297
    -0.082172313149502     0.047442206917439    -0.269438123968448
4 13
     0.000000085924981    -0.000000000000000     0.000000000000001
    -0.000000000000000     0.000000085924981     0.000000000000000
     0.000000000000000    -0.000000000000000     0.000000017607803
4 14
     0.112377968676467    -0.000000000000000     0.000000000000002
     0.000000000000000    -0.070625893733434     0.094861417646985
    -0.000000000000000    -0.647570801464310    -0.269424037725081
4 15
    -0.024874928130959    -0.079242996585830    -0.082152397176074
    -0.079242997251816     0.066627003073992    -0.047430708823492
     0.560812767173774     0.323785400732155    -0.269424037725080
4 16
    -0.024874928130959     0.079242996585831     0.082152397176077
     0.079242997251816     0.066627003073992    -0.047430708823492
    -0.560812767173774     0.323785400732155    -0.269424037725080
4 17
     0.000000085924981     0.000000000000000    -0.000000000000001
    -0.000000000000000     0.000000085924981     0.000000000000000
    -0.000000000000000     0.000000000000000     0.000000017607805
4 18
     0.000000085924981     0.000000000000000    -0.000000000000001
    -0.000000000000000     0.000000085924981     0.000000000000000
    -0.000000000000000     0.000000000000000     0.000000017607805
4 19
     0.000000085924981     0.000000000000000    -0.000000000000001
    -0.000000000000000     0.000000085924981     0.000000000000000
    -0.000000000000000     0.000000000000000     0.000000017607805
4 20
    -1.983875023907199    -0.000000000000000    -0.000000000000003
    -0.000000000000000    -1.983875023907200    -0.000000000000001
     0.000000000000000    -0.000000000000000   -16.134793397577536
4 21
     0.000000085924981     0.000000000000000    -0.000000000000001
    -0.000000000000000     0.000000085924981     0.000000000000000
    -0.000000000000000     0.000000000000000     0.000000017607805
4 22
     0.000000085924981     0.000000000000000    -0.000000000000001
    -0.000000000000000     0.000000085924981     0.000000000000000
    -0.000000000000000     0.000000000000000     0.000000017607805
4 23
     0.000000085924981     0.000000000000000    -0.000000000000001
    -0.000000000000000     0.000000085924981     0.000000000000000
    -0.000000000000000     0.000000000000000     0.000000017607805
4 24
     0.000000085924981     0.000000000000000    -0.000000000000001
    -0.000000000000000     0.000000085924981     0.000000000000000
    -0.000000000000000     0.000000000000000     0.000000017607805
4 25
     0.000000085924981    -0.000000000000000    -0.000000000000001
    -0.000000000000000     0.000000085924981     0.000000000000000
     0.000000000000000    -0.000000000000000     0.000000017607805
4 26
     0.000000085924981    -0.000000000000000    -0.000000000000001
    -0.000000000000000     0.000000085924981     0.000000000000000
     0.000000000000000    -0.000000000000000     0.000000017607805
4 27
     0.000000085924981    -0.000000000000000    -0.000000000000001
    -0.000000000000000     0.000000085924981     0.000000000000000
     0.000000000000000    -0.000000000000000     0.000000017607805
4 28
     0.000000085924981    -0.000000000000000    -0.000000000000001
    -0.000000000000000     0.000000085924981     0.000000000000000
     0.000000000000000    -0.000000000000000     0.000000017607805
4 29
     0.000000085924981    -0.000000000000000    -0.000000000000001
    -0.000000000000000     0.000000085924981     0.000000000000000
     0.000000000000000    -0.000000000000000     0.000000017607805
4 30
    -2.026182941657075    -0.000000000000001    -0.000000000000000
    -0.000000000000000   -14.012382935178557    -4.228335920206551
    -0.000000000000000    -4.229296034104840    -3.503493456414155
4 31
   -11.015832936798189    -5.190176822805218     3.661846307245412
    -5.190176866425261    -5.022732940037447     2.114167960103275
     3.662677821050775     2.114648017052420    -3.503493456414156
4 32
   -11.015832936798192     5.190176822805217    -3.661846307245413
     5.190176866425260    -5.022732940037446     2.114167960103275
    -3.662677821050774     2.114648017052419    -3.503493456414155
5 1
     0.000000085924981     0.000000000000000     0.000000000000001
    -0.000000000000000     0.000000085924981     0.000000000000000
    -0.000000000000000     0.000000000000000     0.000000017607803
5 2
     0.000000085924981     0.000000000000000     0.000000000000001
    -0.000000000000000     0.000000085924981     0.000000000000000
    -0.000000000000000     0.000000000000000     0.000000017607803
5 3
     0.000000085924981     0.000000000000000     0.000000000000001
    -0.000000000000000     0.000000085924981     0.000000000000000
    -0.000000000000000     0.000000000000000     0.000000017607803
5 4
     0.000000085924981     0.000000000000000     0.000000000000001
    -0.000000000000000     0.000000085924981     0.000000000000000
    -0.000000000000000     0.000000000000000     0.000000017607803
5 5
    26.917016274900909     0.000000000000001     0.000000000000002
     0.000000000000002    26.917016274900917     0.000000000000001
    -0.000000000000001    -0.000000000000001    27.572845937499455
5 6
    -0.907723341962156    -0.000000000000000     0.000000000000000
    -0.000000000000000     0.240563134317925    -0.015132892264714
     0.000000000000000    -0.015132341727102     0.229671324661194
5 7
    -0.046508484752095     0.497222627550918     0.013105469078905
     0.497222631729749    -0.620651722892136     0.007566446132357
     0.013104992409487     0.007566170863551     0.229671324661193
5 8
    -0.046508484752096    -0.497222627550918    -0.013105469078904
    -0.497222631729749    -0.620651722892136     0.007566446132357
    -0.013104992409487     0.007566170863551     0.229671324661195
5 9
    -0.024874928130959     0.079242996585831     0.082152397176077
     0.079242997251816     0.066627003073992    -0.047430708823492
    -0.560812767173774     0.323785400732155    -0.269424037725080
5 10
    -0.024874928130959    -0.079242996585830    -0.082152397176074
    -0.079242997251816     0.066627003073992    -0.047430708823492
     0.560812767173774     0.323785400732155    -0.269424037725080
5 11
     0.112377968676467    -0.000000000000000     0.000000000000002
     0.000000000000000    -0.070625893733434     0.094861417646985
    -0.000000000000000    -0.647570801464310    -0.269424037725081
5 12
     0.000000085924981    -0.000000000000000     0.000000000000001
    -0.000000000000000     0.000000085924981     0.000000000000000
     0.000000000000000    -0.000000000000000     0.000000017607803
5 13
    -0.024783858058687     0.079194949187093     0.560903001801693
     0.079194949852675     0.066662592788841    -0.323837500440297
    -0.082172313149502     0.047442206917439    -0.269438123968448
5 14
    -0.024783858058687    -0.079194949187093    -0.560903001801691
    -0.079194949852675     0.066662592788841    -0.323837500440297
     0.082172313149502     0.047442206917439    -0.269438123968449
5 15
     0.112385818212605    -0.000000000000000     0.000000000000000
     0.000000000000000    -0.070507083482451     0.647675000880595
    -0.000000000000000    -0.094884413834878    -0.269438123968448
5 16
     0.000000085924981    -0.000000000000000     0.000000000000001
    -0.000000000000000     0.000000085924981     0.000000000000000
     0.000000000000000    -0.000000000000000     0.000000017607803
5 17
     0.000000085924981     0.000000000000000    -0.000000000000001
    -0.000000000000000     0.000000085924981     0.000000000000000
    -0.000000000000000     0.000000000000000     0.000000017607805
5 18
     0.000000085924981     0.000000000000000    -0.000000000000001
    -0.000000000000000     0.000000085924981     0.000000000000000