ITEM: TIMESTEP
0
ITEM: NUMBER OF ATOMS
32
ITEM: BOX BOUNDS xy xz yz pp pp pp
-3.1900000572000002e+00 6.3800001144000005e+00 -3.1900000572000002e+00
0.0000000000000000e+00 5.5252421519999988e+00 6.3546923996123053e-16
0.0000000000000000e+00 1.0378000259400000e+01 0.0000000000000000e+00
ITEM: ATOMS id type x y z fx fy fz
1 1      1.59500009      0.92087371      0.00000000     -0.01027994      0.00000697     -0.23401702
17 2      1.58976297      0.92087371      1.93735610      0.13882298     -0.00091569      0.33099602
3 1      0.00000006      3.68349479      0.00000000     -0.00000191     -0.00000279     -0.09318439
19 2      0.00000006      3.68349479      1.94587505     -0.00035335      0.00254142      0.09507186
9 1     -0.00000002      1.84174728      2.59450006     -0.02641781      0.00921653     -0.10395529
11 1     -1.59500004      4.60436836      2.59450006     -0.01053102      0.03578415     -0.12305369
25 2     -0.00000002      1.84174728      4.54037511      0.00465854     -0.00235382      0.09049229
5 1      1.59500009      0.92087371      5.18900013     -0.00000191     -0.00000279     -0.09318439
27 2     -1.59500004      4.60436836      4.54037511      0.00057459      0.00549359      0.09091814
7 1      0.00000006      3.68349479      5.18900013     -0.00000191     -0.00000279     -0.09318439
13 1     -0.00000002      1.84174728      7.78350019      0.00000191      0.00000279     -0.09318439
21 2      1.59500009      0.92087371      7.13487518     -0.00000191     -0.00000279      0.09318439
15 1     -1.59500004      4.60436836      7.78350019      0.00000191      0.00000279     -0.09318439
23 2      0.00000006      3.68349479      7.13487518     -0.00000191     -0.00000279      0.09318439
29 2     -0.00000002      1.84174728      9.72937524      0.00058501      0.00001570      0.08788206
31 2     -1.59500004      4.60436836      9.72937524      0.00060001      0.00081906      0.09086450
2 1      4.78500015      0.92087371      0.00000000     -0.00000191     -0.00000279     -0.09318439
18 2      4.78500015      0.92087371      1.94587505     -0.00477317      0.00012228      0.09514885
4 1      3.19000012      3.68349479      0.00000000     -0.00000191     -0.00000279     -0.09318439
20 2      3.19000012      3.68349479      1.94587505     -0.00018655     -0.00265820      0.09518426
10 1      3.19000004      1.84174728      2.59450006     -0.08701900     -0.04411865     -0.14160848
12 1      1.59500001      4.60436836      2.59450006      0.00000191      0.00000279     -0.09318439
26 2      3.19000004      1.84174728      4.54037511     -0.00485163     -0.00312878      0.09134287
6 1      4.78500015      0.92087371      5.18900013     -0.00000191     -0.00000279     -0.09318439
28 2      1.59500001      4.60436836      4.54037511      0.00000191      0.00000279      0.09318439
8 1      3.19000012      3.68349479      5.18900013     -0.00000191     -0.00000279     -0.09318439
14 1      3.19000004      1.84174728      7.78350019      0.00000191      0.00000279     -0.09318439
22 2      4.78500015      0.92087371      7.13487518     -0.00000191     -0.00000279      0.09318439
16 1      1.59500001      4.60436836      7.78350019      0.00000191      0.00000279     -0.09318439
24 2      3.19000012      3.68349479      7.13487518     -0.00000191     -0.00000279      0.09318439
30 2      3.19000004      1.84174728      9.72937524     -0.00082102     -0.00081339      0.09383996
32 2      1.59500001      4.60436836      9.72937524      0.00000191      0.00000279      0.09318439
