32   
4    

1    
  0.0052371265451679   0.0000000000000000   0.0085189497914883
  -0.1388267300   -0.0009157406   -0.3309959806
   0.0047693500    0.0001222894   -0.0951488506
   0.0001827300   -0.0026582006   -0.0951842606
   0.0003495300    0.0025414194   -0.0950718506
  -0.0000019100   -0.0000027906   -0.0931843906
  -0.0000019100   -0.0000027906   -0.0931843906
  -0.0000019100   -0.0000027906   -0.0931843906
  -0.0000019100   -0.0000027906   -0.0931843906
   0.0008248400   -0.0008133906   -0.0938399606
  -0.0005811900    0.0000156994   -0.0878820606
  -0.0005961900    0.0008190594   -0.0908645006
   0.0000019100    0.0000027894   -0.0931843906
   0.0048554400   -0.0031287806   -0.0913428706
  -0.0046547200   -0.0023538206   -0.0904922906
  -0.0005707700    0.0054935894   -0.0909181406
   0.0000019100    0.0000027894   -0.0931843906
   0.0102761300    0.0000069794    0.2340170194
  -0.0000019100   -0.0000027906    0.0931843894
  -0.0000019100   -0.0000027906    0.0931843894
  -0.0000019100   -0.0000027906    0.0931843894
  -0.0000019100   -0.0000027906    0.0931843894
  -0.0000019100   -0.0000027906    0.0931843894
  -0.0000019100   -0.0000027906    0.0931843894
  -0.0000019100   -0.0000027906    0.0931843894
   0.0000019100    0.0000027894    0.0931843894
   0.0000019100    0.0000027894    0.0931843894
   0.0000019100    0.0000027894    0.0931843894
   0.0000019100    0.0000027894    0.0931843894
   0.0870227500   -0.0441186106    0.1416084494
   0.0264216400    0.0092165294    0.1039552794
   0.0105348300    0.0357841494    0.1230536894
   0.0000019100    0.0000027894    0.0931843894

1    
 -0.0052371265451679   0.0000000000000000  -0.0085189497914883
   0.1431089109   -0.0009442006    0.1387873997
  -0.0047385191   -0.0001351306   -0.0912357603
  -0.0000807891    0.0026785594   -0.0911338603
  -0.0003610891   -0.0025376406   -0.0912959903
  -0.0000019091   -0.0000027906   -0.0931843903
  -0.0000019091   -0.0000027906   -0.0931843903
  -0.0000019091   -0.0000027906   -0.0931843903
  -0.0000019091   -0.0000027906   -0.0931843903
  -0.0008348391    0.0008242894   -0.0925556103
   0.0005593009   -0.0000056306   -0.0983477903
   0.0005809709   -0.0007976406   -0.0954551003
   0.0000019109    0.0000027894   -0.0931843903
  -0.0049602591    0.0032180894   -0.0950727803
   0.0046398909    0.0023330194   -0.0959431703
   0.0006063009   -0.0055392806   -0.0955086103
   0.0000019109    0.0000027894   -0.0931843903
  -0.0105034791    0.0000062694   -0.0408859703
  -0.0000019091   -0.0000027906    0.0931843897
  -0.0000019091   -0.0000027906    0.0931843897
  -0.0000019091   -0.0000027906    0.0931843897
  -0.0000019091   -0.0000027906    0.0931843897
  -0.0000019091   -0.0000027906    0.0931843897
  -0.0000019091   -0.0000027906    0.0931843897
  -0.0000019091   -0.0000027906    0.0931843897
   0.0000019109    0.0000027894    0.0931843897
   0.0000019109    0.0000027894    0.0931843897
   0.0000019109    0.0000027894    0.0931843897
   0.0000019109    0.0000027894    0.0931843897
  -0.0907699291    0.0462808094    0.0435597697
  -0.0265494191   -0.0091131106    0.0826168097
  -0.0106894291   -0.0362572306    0.0633643297
   0.0000019109    0.0000027894    0.0931843897

17   
  0.0052371265451679   0.0000000000000000   0.0085189497914883
   0.0104996591    0.0000062694    0.0408859803
  -0.0000019109   -0.0000027906   -0.0931843897
  -0.0000019109   -0.0000027906   -0.0931843897
  -0.0000019109   -0.0000027906   -0.0931843897
  -0.0000019109   -0.0000027906   -0.0931843897
  -0.0000019109   -0.0000027906   -0.0931843897
  -0.0000019109   -0.0000027906   -0.0931843897
  -0.0000019109   -0.0000027906   -0.0931843897
   0.0265532291   -0.0091131006   -0.0826167997
   0.0907738191    0.0462808494   -0.0435597397
   0.0106932491   -0.0362572306   -0.0633643297
   0.0000019091    0.0000027894   -0.0931843897
   0.0000019091    0.0000027894   -0.0931843897
   0.0000019091    0.0000027894   -0.0931843897
   0.0000019091    0.0000027894   -0.0931843897
   0.0000019091    0.0000027894   -0.0931843897
  -0.1431127909   -0.0009442506   -0.1387874397
   0.0047346991   -0.0001351306    0.0912357703
   0.0003572691   -0.0025376406    0.0912959903
   0.0000769691    0.0026785594    0.0911338603
  -0.0000019109   -0.0000027906    0.0931843903
  -0.0000019109   -0.0000027906    0.0931843903
  -0.0000019109   -0.0000027906    0.0931843903
  -0.0000019109   -0.0000027906    0.0931843903
  -0.0046360709    0.0023330194    0.0959431703
   0.0049640791    0.0032180894    0.0950727803
  -0.0006024809   -0.0055392806    0.0955086103
   0.0000019091    0.0000027894    0.0931843903
  -0.0005554809   -0.0000056306    0.0983477803
   0.0008386591    0.0008242894    0.0925556103
  -0.0005771509   -0.0007976406    0.0954550903
   0.0000019091    0.0000027894    0.0931843903

17   
 -0.0052371265451679   0.0000000000000000  -0.0085189497914883
  -0.0102799400    0.0000069697   -0.2340170197
  -0.0000019100   -0.0000027903   -0.0931843897
  -0.0000019100   -0.0000027903   -0.0931843897
  -0.0000019100   -0.0000027903   -0.0931843897
  -0.0000019100   -0.0000027903   -0.0931843897
  -0.0000019100   -0.0000027903   -0.0931843897
  -0.0000019100   -0.0000027903   -0.0931843897
  -0.0000019100   -0.0000027903   -0.0931843897
  -0.0264178100    0.0092165297   -0.1039552897
  -0.0870190000   -0.0441186503   -0.1416084797
  -0.0105310200    0.0357841497   -0.1230536897
   0.0000019100    0.0000027897   -0.0931843897
   0.0000019100    0.0000027897   -0.0931843897
   0.0000019100    0.0000027897   -0.0931843897
   0.0000019100    0.0000027897   -0.0931843897
   0.0000019100    0.0000027897   -0.0931843897
   0.1388229800   -0.0009156903    0.3309960203
  -0.0047731700    0.0001222797    0.0951488503
  -0.0003533500    0.0025414197    0.0950718603
  -0.0001865500   -0.0026582003    0.0951842603
  -0.0000019100   -0.0000027903    0.0931843903
  -0.0000019100   -0.0000027903    0.0931843903
  -0.0000019100   -0.0000027903    0.0931843903
  -0.0000019100   -0.0000027903    0.0931843903
   0.0046585400   -0.0023538203    0.0904922903
  -0.0048516300   -0.0031287803    0.0913428703
   0.0005745900    0.0054935897    0.0909181403
   0.0000019100    0.0000027897    0.0931843903
   0.0005850100    0.0000156997    0.0878820603
  -0.0008210200   -0.0008133903    0.0938399603
   0.0006000100    0.0008190597    0.0908645003
   0.0000019100    0.0000027897    0.0931843903
