ITEM: TIMESTEP
0
ITEM: NUMBER OF ATOMS
32
ITEM: BOX BOUNDS xy xz yz pp pp pp
-3.1900000572000002e+00 6.3800001144000005e+00 -3.1900000572000002e+00
0.0000000000000000e+00 5.5252421519999988e+00 6.3546923996123053e-16
0.0000000000000000e+00 1.0378000259400000e+01 0.0000000000000000e+00
ITEM: ATOMS id type x y z fx fy fz
1 1      1.60023722      0.92087371      0.00851895     -0.13882673     -0.00091574     -0.33099598
17 2      1.59500009      0.92087371      1.94587505      0.01027613      0.00000698      0.23401702
3 1      0.00000006      3.68349479      0.00000000      0.00018273     -0.00265820     -0.09518426
19 2      0.00000006      3.68349479      1.94587505     -0.00000191     -0.00000279      0.09318439
9 1     -0.00000002      1.84174728      2.59450006      0.00082484     -0.00081339     -0.09383996
11 1     -1.59500004      4.60436836      2.59450006     -0.00059619      0.00081906     -0.09086450
25 2     -0.00000002      1.84174728      4.54037511      0.00000191      0.00000279      0.09318439
5 1      1.59500009      0.92087371      5.18900013     -0.00000191     -0.00000279     -0.09318439
27 2     -1.59500004      4.60436836      4.54037511      0.00000191      0.00000279      0.09318439
7 1      0.00000006      3.68349479      5.18900013     -0.00000191     -0.00000279     -0.09318439
13 1     -0.00000002      1.84174728      7.78350019      0.00485544     -0.00312878     -0.09134287
21 2      1.59500009      0.92087371      7.13487518     -0.00000191     -0.00000279      0.09318439
15 1     -1.59500004      4.60436836      7.78350019     -0.00057077      0.00549359     -0.09091814
23 2      0.00000006      3.68349479      7.13487518     -0.00000191     -0.00000279      0.09318439
29 2     -0.00000002      1.84174728      9.72937524      0.08702275     -0.04411861      0.14160845
31 2     -1.59500004      4.60436836      9.72937524      0.01053483      0.03578415      0.12305369
2 1      4.78500015      0.92087371      0.00000000      0.00476935      0.00012229     -0.09514885
18 2      4.78500015      0.92087371      1.94587505     -0.00000191     -0.00000279      0.09318439
4 1      3.19000012      3.68349479      0.00000000      0.00034953      0.00254142     -0.09507185
20 2      3.19000012      3.68349479      1.94587505     -0.00000191     -0.00000279      0.09318439
10 1      3.19000004      1.84174728      2.59450006     -0.00058119      0.00001570     -0.08788206
12 1      1.59500001      4.60436836      2.59450006      0.00000191      0.00000279     -0.09318439
26 2      3.19000004      1.84174728      4.54037511      0.00000191      0.00000279      0.09318439
6 1      4.78500015      0.92087371      5.18900013     -0.00000191     -0.00000279     -0.09318439
28 2      1.59500001      4.60436836      4.54037511      0.00000191      0.00000279      0.09318439
8 1      3.19000012      3.68349479      5.18900013     -0.00000191     -0.00000279     -0.09318439
14 1      3.19000004      1.84174728      7.78350019     -0.00465472     -0.00235382     -0.09049229
22 2      4.78500015      0.92087371      7.13487518     -0.00000191     -0.00000279      0.09318439
16 1      1.59500001      4.60436836      7.78350019      0.00000191      0.00000279     -0.09318439
24 2      3.19000012      3.68349479      7.13487518     -0.00000191     -0.00000279      0.09318439
30 2      3.19000004      1.84174728      9.72937524      0.02642164      0.00921653      0.10395528
32 2      1.59500001      4.60436836      9.72937524      0.00000191      0.00000279      0.09318439
