ITEM: TIMESTEP
0
ITEM: NUMBER OF ATOMS
32
ITEM: BOX BOUNDS xy xz yz pp pp pp
-3.1900000572000002e+00 6.3800001144000005e+00 -3.1900000572000002e+00
0.0000000000000000e+00 5.5252421519999988e+00 6.3546923996123053e-16
0.0000000000000000e+00 1.0378000259400000e+01 0.0000000000000000e+00
ITEM: ATOMS id type x y z fx fy fz
1 1      1.59500009      0.92087371      0.00000000      0.01049966      0.00000627      0.04088598
17 2      1.60023722      0.92087371      1.95439400     -0.14311279     -0.00094425     -0.13878744
3 1      0.00000006      3.68349479      0.00000000     -0.00000191     -0.00000279     -0.09318439
19 2      0.00000006      3.68349479      1.94587505      0.00035727     -0.00253764      0.09129599
9 1     -0.00000002      1.84174728      2.59450006      0.02655323     -0.00911310     -0.08261680
11 1     -1.59500004      4.60436836      2.59450006      0.01069325     -0.03625723     -0.06336433
25 2     -0.00000002      1.84174728      4.54037511     -0.00463607      0.00233302      0.09594317
5 1      1.59500009      0.92087371      5.18900013     -0.00000191     -0.00000279     -0.09318439
27 2     -1.59500004      4.60436836      4.54037511     -0.00060248     -0.00553928      0.09550861
7 1      0.00000006      3.68349479      5.18900013     -0.00000191     -0.00000279     -0.09318439
13 1     -0.00000002      1.84174728      7.78350019      0.00000191      0.00000279     -0.09318439
21 2      1.59500009      0.92087371      7.13487518     -0.00000191     -0.00000279      0.09318439
15 1     -1.59500004      4.60436836      7.78350019      0.00000191      0.00000279     -0.09318439
23 2      0.00000006      3.68349479      7.13487518     -0.00000191     -0.00000279      0.09318439
29 2     -0.00000002      1.84174728      9.72937524     -0.00055548     -0.00000563      0.09834778
31 2     -1.59500004      4.60436836      9.72937524     -0.00057715     -0.00079764      0.09545509
2 1      4.78500015      0.92087371      0.00000000     -0.00000191     -0.00000279     -0.09318439
18 2      4.78500015      0.92087371      1.94587505      0.00473470     -0.00013513      0.09123577
4 1      3.19000012      3.68349479      0.00000000     -0.00000191     -0.00000279     -0.09318439
20 2      3.19000012      3.68349479      1.94587505      0.00007697      0.00267856      0.09113386
10 1      3.19000004      1.84174728      2.59450006      0.09077382      0.04628085     -0.04355974
12 1      1.59500001      4.60436836      2.59450006      0.00000191      0.00000279     -0.09318439
26 2      3.19000004      1.84174728      4.54037511      0.00496408      0.00321809      0.09507278
6 1      4.78500015      0.92087371      5.18900013     -0.00000191     -0.00000279     -0.09318439
28 2      1.59500001      4.60436836      4.54037511      0.00000191      0.00000279      0.09318439
8 1      3.19000012      3.68349479      5.18900013     -0.00000191     -0.00000279     -0.09318439
14 1      3.19000004      1.84174728      7.78350019      0.00000191      0.00000279     -0.09318439
22 2      4.78500015      0.92087371      7.13487518     -0.00000191     -0.00000279      0.09318439
16 1      1.59500001      4.60436836      7.78350019      0.00000191      0.00000279     -0.09318439
24 2      3.19000012      3.68349479      7.13487518     -0.00000191     -0.00000279      0.09318439
30 2      3.19000004      1.84174728      9.72937524      0.00083866      0.00082429      0.09255561
32 2      1.59500001      4.60436836      9.72937524      0.00000191      0.00000279      0.09318439
