ITEM: TIMESTEP
0
ITEM: NUMBER OF ATOMS
32
ITEM: BOX BOUNDS xy xz yz pp pp pp
-3.1900000572000002e+00 6.3800001144000005e+00 -3.1900000572000002e+00
0.0000000000000000e+00 5.5252421519999988e+00 6.3546923996123053e-16
0.0000000000000000e+00 1.0378000259400000e+01 0.0000000000000000e+00
ITEM: ATOMS id type x y z fx fy fz
17 2      1.59500009      0.92087371      1.94587505     -0.01050348      0.00000627     -0.04088597
3 1      0.00000006      3.68349479      0.00000000     -0.00008079      0.00267856     -0.09113386
19 2      0.00000006      3.68349479      1.94587505     -0.00000191     -0.00000279      0.09318439
9 1     -0.00000002      1.84174728      2.59450006     -0.00083484      0.00082429     -0.09255561
11 1     -1.59500004      4.60436836      2.59450006      0.00058097     -0.00079764     -0.09545510
25 2     -0.00000002      1.84174728      4.54037511      0.00000191      0.00000279      0.09318439
5 1      1.59500009      0.92087371      5.18900013     -0.00000191     -0.00000279     -0.09318439
27 2     -1.59500004      4.60436836      4.54037511      0.00000191      0.00000279      0.09318439
7 1      0.00000006      3.68349479      5.18900013     -0.00000191     -0.00000279     -0.09318439
13 1     -0.00000002      1.84174728      7.78350019     -0.00496026      0.00321809     -0.09507278
21 2      1.59500009      0.92087371      7.13487518     -0.00000191     -0.00000279      0.09318439
15 1     -1.59500004      4.60436836      7.78350019      0.00060630     -0.00553928     -0.09550861
23 2      0.00000006      3.68349479      7.13487518     -0.00000191     -0.00000279      0.09318439
29 2     -0.00000002      1.84174728      9.72937524     -0.09076993      0.04628081      0.04355977
1 1      1.58976297      0.92087371     10.36948131      0.14310891     -0.00094420      0.13878740
31 2     -1.59500004      4.60436836      9.72937524     -0.01068943     -0.03625723      0.06336433
2 1      4.78500015      0.92087371      0.00000000     -0.00473852     -0.00013513     -0.09123576
18 2      4.78500015      0.92087371      1.94587505     -0.00000191     -0.00000279      0.09318439
4 1      3.19000012      3.68349479      0.00000000     -0.00036109     -0.00253764     -0.09129599
20 2      3.19000012      3.68349479      1.94587505     -0.00000191     -0.00000279      0.09318439
10 1      3.19000004      1.84174728      2.59450006      0.00055930     -0.00000563     -0.09834779
12 1      1.59500001      4.60436836      2.59450006      0.00000191      0.00000279     -0.09318439
26 2      3.19000004      1.84174728      4.54037511      0.00000191      0.00000279      0.09318439
6 1      4.78500015      0.92087371      5.18900013     -0.00000191     -0.00000279     -0.09318439
28 2      1.59500001      4.60436836      4.54037511      0.00000191      0.00000279      0.09318439
8 1      3.19000012      3.68349479      5.18900013     -0.00000191     -0.00000279     -0.09318439
14 1      3.19000004      1.84174728      7.78350019      0.00463989      0.00233302     -0.09594317
22 2      4.78500015      0.92087371      7.13487518     -0.00000191     -0.00000279      0.09318439
16 1      1.59500001      4.60436836      7.78350019      0.00000191      0.00000279     -0.09318439
24 2      3.19000012      3.68349479      7.13487518     -0.00000191     -0.00000279      0.09318439
30 2      3.19000004      1.84174728      9.72937524     -0.02654942     -0.00911311      0.08261681
32 2      1.59500001      4.60436836      9.72937524      0.00000191      0.00000279      0.09318439
