mesh: [    20,    20,    20 ]
nqpoint: 1100   
reciprocal_lattice:
- [   0.31347962,   0.18098754,   0.00000000 ] # a*
- [   0.00000000,   0.36197509,   0.00000000 ] # b*
- [   0.00000000,   0.00000000,   0.19271535 ] # c*
natom:   4      
lattice:
- [     3.190000057200000,     0.000000000000000,     0.000000000000000 ] # a
- [    -1.595000028600000,     2.762621076000000,     0.000000000000000 ] # b
- [     0.000000000000000,     0.000000000000000,     5.189000129699999 ] # c
points:
- symbol: Ga # 1
  coordinates: [  0.666666690000000,  0.333333340000000,  0.000000000000000 ]
  mass: 69.723000
- symbol: Ga # 2
  coordinates: [  0.333333310000000,  0.666666630000000,  0.500000000000000 ]
  mass: 69.723000
- symbol: N  # 3
  coordinates: [  0.666666690000000,  0.333333340000000,  0.375000000000000 ]
  mass: 14.006700
- symbol: N  # 4
  coordinates: [  0.333333310000000,  0.666666630000000,  0.875000000000000 ]
  mass: 14.006700

phonon:
- q-position: [    0.0250000,    0.0250000,    0.0250000 ]
  distance_from_gamma:  0.016397734
  weight: 4    
  band:
  - # 1
    frequency:     0.6405151708
  - # 2
    frequency:     0.6643898214
  - # 3
    frequency:     1.1928150564
  - # 4
    frequency:     4.6195525081
  - # 5
    frequency:     4.7012075656
  - # 6
    frequency:     9.9861505305
  - # 7
    frequency:    22.6793854154
  - # 8
    frequency:    22.7877810258
  - # 9
    frequency:    23.0341166246
  - # 10
    frequency:    23.3361020103
  - # 11
    frequency:    23.3499485950
  - # 12
    frequency:    23.6330711372

- q-position: [    0.0750000,    0.0250000,    0.0250000 ]
  distance_from_gamma:  0.032981782
  weight: 8    
  band:
  - # 1
    frequency:     1.2849523094
  - # 2
    frequency:     1.3035109245
  - # 3
    frequency:     2.3856994265
  - # 4
    frequency:     4.7683915652
  - # 5
    frequency:     5.0924634190
  - # 6
    frequency:     9.9456845364
  - # 7
    frequency:    22.4928190095
  - # 8
    frequency:    22.7708923882
  - # 9
    frequency:    23.1718414439
  - # 10
    frequency:    23.2690703465
  - # 11
    frequency:    23.3208715557
  - # 12
    frequency:    23.6436751467

- q-position: [    0.1250000,    0.0250000,    0.0250000 ]
  distance_from_gamma:  0.050614623
  weight: 8    
  band:
  - # 1
    frequency:     1.9415386620
  - # 2
    frequency:     1.9789382111
  - # 3
    frequency:     3.6110358553
  - # 4
    frequency:     5.0121576130
  - # 5
    frequency:     5.6875651505
  - # 6
    frequency:     9.8767076796
  - # 7
    frequency:    22.2886239741
  - # 8
    frequency:    22.7422743459
  - # 9
    frequency:    23.1450879522
  - # 10
    frequency:    23.2658078354
  - # 11
    frequency:    23.3162555186
  - # 12
    frequency:    23.6513942987

- q-position: [    0.1750000,    0.0250000,    0.0250000 ]
  distance_from_gamma:  0.068490962
  weight: 8    
  band:
  - # 1
    frequency:     2.5641571380
  - # 2
    frequency:     2.6492340488
  - # 3
    frequency:     4.7861046695
  - # 4
    frequency:     5.3175746664
  - # 5
    frequency:     6.3648744296
  - # 6
    frequency:     9.7877077595
  - # 7
    frequency:    22.0880578597
  - # 8
    frequency:    22.7045884687
  - # 9
    frequency:    22.9998803738
  - # 10
    frequency:    23.1989523279
  - # 11
    frequency:    23.4187200914
  - # 12
    frequency:    23.6522506684

- q-position: [    0.2250000,    0.0250000,    0.0250000 ]
  distance_from_gamma:  0.086459896
  weight: 8    
  band:
  - # 1
    frequency:     3.1318169156
  - # 2
    frequency:     3.2994966820
  - # 3
    frequency:     5.6479512109
  - # 4
    frequency:     5.8772529776
  - # 5
    frequency:     7.0138403942
  - # 6
    frequency:     9.6959988193
  - # 7
    frequency:    21.9064704278
  - # 8
    frequency:    22.6594329959
  - # 9
    frequency:    22.8285523076
  - # 10
    frequency:    23.1173846214
  - # 11
    frequency:    23.4988899041
  - # 12
    frequency:    23.6474195230

- q-position: [    0.2750000,    0.0250000,    0.0250000 ]
  distance_from_gamma:  0.104473657
  weight: 8    
  band:
  - # 1
    frequency:     3.6279882936
  - # 2
    frequency:     3.9161881340
  - # 3
    frequency:     5.9718411893
  - # 4
    frequency:     6.8557159149
  - # 5
    frequency:     7.5352516863
  - # 6
    frequency:     9.6332617483
  - # 7
    frequency:    21.7592844962
  - # 8
    frequency:    22.5810652269
  - # 9
    frequency:    22.6695648758
  - # 10
    frequency:    23.0293425036
  - # 11
    frequency:    23.5541909782
  - # 12
    frequency:    23.6404223908

- q-position: [    0.3250000,    0.0250000,    0.0250000 ]
  distance_from_gamma:  0.122512474
  weight: 8    
  band:
  - # 1
    frequency:     4.0382135974
  - # 2
    frequency:     4.4814743696
  - # 3
    frequency:     6.2595320418
  - # 4
    frequency:     7.6882339482
  - # 5
    frequency:     7.8573615961
  - # 6
    frequency:     9.6370837835
  - # 7
    frequency:    21.6612817306
  - # 8
    frequency:    22.3961158864
  - # 9
    frequency:    22.6099113557
  - # 10
    frequency:    22.9425555476
  - # 11
    frequency:    23.5860392612
  - # 12
    frequency:    23.6357521816

- q-position: [    0.3750000,    0.0250000,    0.0250000 ]
  distance_from_gamma:  0.140566701
  weight: 8    
  band:
  - # 1
    frequency:     4.3500472753
  - # 2
    frequency:     4.9680504870
  - # 3
    frequency:     6.4884466426
  - # 4
    frequency:     7.9231521343
  - # 5
    frequency:     8.3968795673
  - # 6
    frequency:     9.6995805870
  - # 7
    frequency:    21.6241835408
  - # 8
    frequency:    22.1867651039
  - # 9
    frequency:    22.5828179690
  - # 10
    frequency:    22.8656797586
  - # 11
    frequency:    23.5985840581
  - # 12
    frequency:    23.6360272809

- q-position: [    0.4250000,    0.0250000,    0.0250000 ]
  distance_from_gamma:  0.158631076
  weight: 8    
  band:
  - # 1
    frequency:     4.5535703128
  - # 2
    frequency:     5.3315031539
  - # 3
    frequency:     6.6416962282
  - # 4
    frequency:     7.8848733410
  - # 5
    frequency:     8.8904364222
  - # 6
    frequency:     9.7504659287
  - # 7
    frequency:    21.6535875582
  - # 8
    frequency:    21.9879617409
  - # 9
    frequency:    22.5694269216
  - # 10
    frequency:    22.8084101728
  - # 11
    frequency:    23.6017100606
  - # 12
    frequency:    23.6375861718

- q-position: [    0.4750000,    0.0250000,    0.0250000 ]
  distance_from_gamma:  0.176702488
  weight: 8    
  band:
  - # 1
    frequency:     4.6420448626
  - # 2
    frequency:     5.5078760844
  - # 3
    frequency:     6.7089543251
  - # 4
    frequency:     7.8370472826
  - # 5
    frequency:     9.1370113380
  - # 6
    frequency:     9.7549278586
  - # 7
    frequency:    21.7443697680
  - # 8
    frequency:    21.8216152626
  - # 9
    frequency:    22.5652059247
  - # 10
    frequency:    22.7810265335
  - # 11
    frequency:    23.6024759488
  - # 12
    frequency:    23.6379457243

- q-position: [   -0.4750000,    0.0250000,    0.0250000 ]
  distance_from_gamma:  0.167666045
  weight: 8    
  band:
  - # 1
    frequency:     4.6124687693
  - # 2
    frequency:     5.4473086462
  - # 3
    frequency:     6.6864460283
  - # 4
    frequency:     7.8554077972
  - # 5
    frequency:     9.0506550570
  - # 6
    frequency:     9.7564830427
  - # 7
    frequency:    21.6925236837
  - # 8
    frequency:    21.8988485921
  - # 9
    frequency:    22.5664729987
  - # 10
    frequency:    22.7903872963
  - # 11
    frequency:    23.6022333666
  - # 12
    frequency:    23.6378736355

- q-position: [   -0.4250000,    0.0250000,    0.0250000 ]
  distance_from_gamma:  0.149597850
  weight: 8    
  band:
  - # 1
    frequency:     4.4658507920
  - # 2
    frequency:     5.1688230528
  - # 3
    frequency:     6.5753384628
  - # 4
    frequency:     7.9128199035
  - # 5
    frequency:     8.6693868333
  - # 6
    frequency:     9.7308647451
  - # 7
    frequency:    21.6305429709
  - # 8
    frequency:    22.0847869957
  - # 9
    frequency:    22.5746819423
  - # 10
    frequency:    22.8339461982
  - # 11
    frequency:    23.6006957406
  - # 12
    frequency:    23.6369390903

- q-position: [   -0.3750000,    0.0250000,    0.0250000 ]
  distance_from_gamma:  0.131538058
  weight: 8    
  band:
  - # 1
    frequency:     4.2071161858
  - # 2
    frequency:     4.7368741507
  - # 3
    frequency:     6.3825359408
  - # 4
    frequency:     7.8938076157
  - # 5
    frequency:     8.0842662938
  - # 6
    frequency:     9.6647358634
  - # 7
    frequency:    21.6345905455
  - # 8
    frequency:    22.2914434428
  - # 9
    frequency:    22.5943319718
  - # 10
    frequency:    22.9022988320
  - # 11
    frequency:    23.5942016162
  - # 12
    frequency:    23.6353787700

- q-position: [   -0.3250000,    0.0250000,    0.0250000 ]
  distance_from_gamma:  0.113490680
  weight: 8    
  band:
  - # 1
    frequency:     3.8446738692
  - # 2
    frequency:     4.2066644078
  - # 3
    frequency:     6.1217432040
  - # 4
    frequency:     7.2945006197
  - # 5
    frequency:     7.7216946180
  - # 6
    frequency:     9.6254556992
  - # 7
    frequency:    21.7032956062
  - # 8
    frequency:    22.4965759419
  - # 9
    frequency:    22.6317305516
  - # 10
    frequency:    22.9852737823
  - # 11
    frequency:    23.5729060615
  - # 12
    frequency:    23.6375157979

- q-position: [   -0.2750000,    0.0250000,    0.0250000 ]
  distance_from_gamma:  0.095462758
  weight: 8    
  band:
  - # 1
    frequency:     3.3897856730
  - # 2
    frequency:     3.6130019353
  - # 3
    frequency:     5.8128392404
  - # 4
    frequency:     6.3819651843
  - # 5
    frequency:     7.2963064475
  - # 6
    frequency:     9.6584332725
  - # 7
    frequency:    21.8276156059
  - # 8
    frequency:    22.6304553693
  - # 9
    frequency:    22.7406557861
  - # 10
    frequency:    23.0737105123
  - # 11
    frequency:    23.5295897818
  - # 12
    frequency:    23.6439216955

- q-position: [   -0.2250000,    0.0250000,    0.0250000 ]
  distance_from_gamma:  0.077467874
  weight: 8    
  band:
  - # 1
    frequency:     2.8559466962
  - # 2
    frequency:     2.9776649982
  - # 3
    frequency:     5.3431234296
  - # 4
    frequency:     5.4826140005
  - # 5
    frequency:     6.6993022263
  - # 6
    frequency:     9.7405977827
  - # 7
    frequency:    21.9939326266
  - # 8
    frequency:    22.6830769857
  - # 9
    frequency:    22.9165386360
  - # 10
    frequency:    23.1594286815
  - # 11
    frequency:    23.4619418665
  - # 12
    frequency:    23.6503602278

- q-position: [   -0.1750000,    0.0250000,    0.0250000 ]
  distance_from_gamma:  0.059535995
  weight: 8    
  band:
  - # 1
    frequency:     2.2585739043
  - # 2
    frequency:     2.3157905218
  - # 3
    frequency:     4.2073417403
  - # 4
    frequency:     5.1594010760
  - # 5
    frequency:     6.0231913378
  - # 6
    frequency:     9.8339023318
  - # 7
    frequency:    22.1869196128
  - # 8
    frequency:    22.7243877432
  - # 9
    frequency:    23.0766374429
  - # 10
    frequency:    23.2350351511
  - # 11
    frequency:    23.3695105698
  - # 12
    frequency:    23.6526859718

- q-position: [   -0.1250000,    0.0250000,    0.0250000 ]
  distance_from_gamma:  0.041748386
  weight: 8    
  band:
  - # 1
    frequency:     1.6157912495
  - # 2
    frequency:     1.6405729738
  - # 3
    frequency:     3.0017467130
  - # 4
    frequency:     4.8803521489
  - # 5
    frequency:     5.3722521080
  - # 6
    frequency:     9.9143754000
  - # 7
    frequency:    22.3912734286
  - # 8
    frequency:    22.7578969806
  - # 9
    frequency:    23.1981060831
  - # 10
    frequency:    23.2564171307
  - # 11
    frequency:    23.2997537954
  - # 12
    frequency:    23.6483088321

- q-position: [   -0.0750000,    0.0250000,    0.0250000 ]
  distance_from_gamma:  0.024422338
  weight: 8    
  band:
  - # 1
    frequency:     0.9550294081
  - # 2
    frequency:     0.9732711505
  - # 3
    frequency:     1.7737201515
  - # 4
    frequency:     4.6803220735
  - # 5
    frequency:     4.8638479708
  - # 6
    frequency:     9.9697955500
  - # 7
    frequency:    22.5905739649
  - # 8
    frequency:    22.7809391424
  - # 9
    frequency:    23.1040195068
  - # 10
    frequency:    23.3074529209
  - # 11
    frequency:    23.3381424303
  - # 12
    frequency:    23.6381864253

- q-position: [   -0.0250000,    0.0250000,    0.0250000 ]
  distance_from_gamma:  0.010251987
  weight: 4    
  band:
  - # 1
    frequency:     0.3964805303
  - # 2
    frequency:     0.4285946615
  - # 3
    frequency:     0.7456708969
  - # 4
    frequency:     4.5885976107
  - # 5
    frequency:     4.6164289553
  - # 6
    frequency:     9.9944087881
  - # 7
    frequency:    22.7436160555
  - # 8
    frequency:    22.7912373882
  - # 9
    frequency:    22.9793196909
  - # 10
    frequency:    23.3512237397
  - # 11
    frequency:    23.3559457038
  - # 12
    frequency:    23.6299059294

- q-position: [    0.0750000,    0.0750000,    0.0250000 ]
  distance_from_gamma:  0.047268119
  weight: 4    
  band:
  - # 1
    frequency:     1.8447092181
  - # 2
    frequency:     1.8508547824
  - # 3
    frequency:     3.3699162797
  - # 4
    frequency:     4.9706978876
  - # 5
    frequency:     5.5571404391
  - # 6
    frequency:     9.8915196619
  - # 7
    frequency:    22.3269260562
  - # 8
    frequency:    22.7463511335
  - # 9
    frequency:    23.1815898143
  - # 10
    frequency:    23.2546521914
  - # 11
    frequency:    23.3060025180
  - # 12
    frequency:    23.6501393082

- q-position: [    0.1250000,    0.0750000,    0.0250000 ]
  distance_from_gamma:  0.063528593
  weight: 8    
  band:
  - # 1
    frequency:     2.4501958864
  - # 2
    frequency:     2.4641615550
  - # 3
    frequency:     4.4403482610
  - # 4
    frequency:     5.2567414991
  - # 5
    frequency:     6.1548595488
  - # 6
    frequency:     9.8132773047
  - # 7
    frequency:    22.1405939569
  - # 8
    frequency:    22.7071280275
  - # 9
    frequency:    23.0623756463
  - # 10
    frequency:    23.2158889676
  - # 11
    frequency:    23.3875379988
  - # 12
    frequency:    23.6515527581

- q-position: [    0.1750000,    0.0750000,    0.0250000 ]
  distance_from_gamma:  0.080576789
  weight: 8    
  band:
  - # 1
    frequency:     3.0335525815
  - # 2
    frequency:     3.0891886147
  - # 3
    frequency:     5.4844656389
  - # 4
    frequency:     5.5945321092
  - # 5
    frequency:     6.7788933326
  - # 6
    frequency:     9.7235378837
  - # 7
    frequency:    21.9581588256
  - # 8
    frequency:    22.6492177879
  - # 9
    frequency:    22.9237875184
  - # 10
    frequency:    23.1465477895
  - # 11
    frequency:    23.4680319686
  - # 12
    frequency:    23.6468698929

- q-position: [    0.2250000,    0.0750000,    0.0250000 ]
  distance_from_gamma:  0.098002477
  weight: 8    
  band:
  - # 1
    frequency:     3.5625636275
  - # 2
    frequency:     3.7010534723
  - # 3
    frequency:     5.9223591471
  - # 4
    frequency:     6.4746451088
  - # 5
    frequency:     7.3292368158
  - # 6
    frequency:     9.6464067182
  - # 7
    frequency:    21.7977763669
  - # 8
    frequency:    22.5554462504
  - # 9
    frequency:    22.7944834637
  - # 10
    frequency:    23.0672993662
  - # 11
    frequency:    23.5280930636
  - # 12
    frequency:    23.6383553542

- q-position: [    0.2750000,    0.0750000,    0.0250000 ]
  distance_from_gamma:  0.115635124
  weight: 8    
  band:
  - # 1
    frequency:     4.0163345865
  - # 2
    frequency:     4.2800305967
  - # 3
    frequency:     6.2364349928
  - # 4
    frequency:     7.3454331735
  - # 5
    frequency:     7.7168034095
  - # 6
    frequency:     9.6181177874
  - # 7
    frequency:    21.6757482742
  - # 8
    frequency:    22.4053097998
  - # 9
    frequency:    22.7074916720
  - # 10
    frequency:    22.9856730851
  - # 11
    frequency:    23.5667670758
  - # 12
    frequency:    23.6298751617

- q-position: [    0.3250000,    0.0750000,    0.0250000 ]
  distance_from_gamma:  0.133392684
  weight: 8    
  band:
  - # 1
    frequency:     4.3789985039
  - # 2
    frequency:     4.8026246207
  - # 3
    frequency:     6.4982652414
  - # 4
    frequency:     7.8693925593
  - # 5
    frequency:     8.1018906394
  - # 6
    frequency:     9.6568379145
  - # 7
    frequency:    21.6060067834
  - # 8
    frequency:    22.2180503602
  - # 9
    frequency:    22.6581512822
  - # 10
    frequency:    22.9094549329
  - # 11
    frequency:    23.5856876109
  - # 12
    frequency:    23.6255405148

- q-position: [    0.3750000,    0.0750000,    0.0250000 ]
  distance_from_gamma:  0.151231161
  weight: 8    
  band:
  - # 1
    frequency:     4.6382409540
  - # 2
    frequency:     5.2333872412
  - # 3
    frequency:     6.6872696028
  - # 4
    frequency:     7.8747579662
  - # 5
    frequency:     8.6724487714
  - # 6
    frequency:     9.7166379779
  - # 7
    frequency:    21.5977092840
  - # 8
    frequency:    22.0252262353
  - # 9
    frequency:    22.6311576864
  - # 10
    frequency:    22.8470987796
  - # 11
    frequency:    23.5909218374
  - # 12
    frequency:    23.6254710701

- q-position: [    0.4250000,    0.0750000,    0.0250000 ]
  distance_from_gamma:  0.169124954
  weight: 8    
  band:
  - # 1
    frequency:     4.7852235217
  - # 2
    frequency:     5.5150337738
  - # 3
    frequency:     6.7912672824
  - # 4
    frequency:     7.8155605612
  - # 5
    frequency:     9.0445037448
  - # 6
    frequency:     9.7359043336
  - # 7
    frequency:    21.6516469519
  - # 8
    frequency:    21.8516654891
  - # 9
    frequency:    22.6191023014
  - # 10
    frequency:    22.8076663249
  - # 11
    frequency:    23.5915982108
  - # 12
    frequency:    23.6257617522

- q-position: [   -0.5250000,    0.0750000,    0.0250000 ]
  distance_from_gamma:  0.178087384
  weight: 8    
  band:
  - # 1
    frequency:     4.8148776206
  - # 2
    frequency:     5.5769216590
  - # 3
    frequency:     6.8113761912
  - # 4
    frequency:     7.7973543631
  - # 5
    frequency:     9.1292363824
  - # 6
    frequency:     9.7326927354
  - # 7
    frequency:    21.6949150080
  - # 8
    frequency:    21.7838005340
  - # 9
    frequency:    22.6170407604
  - # 10
    frequency:    22.7992342248
  - # 11
    frequency:    23.5916389177
  - # 12
    frequency:    23.6257435711

- q-position: [   -0.4750000,    0.0750000,    0.0250000 ]
  distance_from_gamma:  0.160172300
  weight: 8    
  band:
  - # 1
    frequency:     4.7261737498
  - # 2
    frequency:     5.3974028159
  - # 3
    frequency:     6.7501400262
  - # 4
    frequency:     7.8452866365
  - # 5
    frequency:     8.8878515435
  - # 6
    frequency:     9.7327276218
  - # 7
    frequency:    21.6173575374
  - # 8
    frequency:    21.9344763928
  - # 9
    frequency:    22.6236071054
  - # 10
    frequency:    22.8239459570
  - # 11
    frequency:    23.5914458334
  - # 12
    frequency:    23.6256965914

- q-position: [   -0.4250000,    0.0750000,    0.0250000 ]
  distance_from_gamma:  0.142303706
  weight: 8    
  band:
  - # 1
    frequency:     4.5221841864
  - # 2
    frequency:     5.0324554726
  - # 3
    frequency:     6.6029010599
  - # 4
    frequency:     7.8889934252
  - # 5
    frequency:     8.4074916581
  - # 6
    frequency:     9.6889108737
  - # 7
    frequency:    21.5938757415
  - # 8
    frequency:    22.1207161320
  - # 9
    frequency:    22.6424262943
  - # 10
    frequency:    22.8759878281
  - # 11
    frequency:    23.5893827041
  - # 12
    frequency:    23.6252428079

- q-position: [   -0.3750000,    0.0750000,    0.0250000 ]
  distance_from_gamma:  0.124501621
  weight: 8    
  band:
  - # 1
    frequency:     4.2099037380
  - # 2
    frequency:     4.5501945082
  - # 3
    frequency:     6.3753015486
  - # 4
    frequency:     7.7187206200
  - # 5
    frequency:     7.8431097019
  - # 6
    frequency:     9.6303847904
  - # 7
    frequency:    21.6336223597
  - # 8
    frequency:    22.3141307408
  - # 9
    frequency:    22.6793168860
  - # 10
    frequency:    22.9463761701
  - # 11
    frequency:    23.5784814762
  - # 12
    frequency:    23.6270096983

- q-position: [   -0.3250000,    0.0750000,    0.0250000 ]
  distance_from_gamma:  0.106799309
  weight: 8    
  band:
  - # 1
    frequency:     3.7999353345
  - # 2
    frequency:     3.9959495454
  - # 3
    frequency:     6.0844502340
  - # 4
    frequency:     6.9257221005
  - # 5
    frequency:     7.5477994002
  - # 6
    frequency:     9.6238916343
  - # 7
    frequency:    21.7310191926
  - # 8
    frequency:    22.4871815410
  - # 9
    frequency:    22.7450780150
  - # 10
    frequency:    23.0263115732
  - # 11
    frequency:    23.5500503599
  - # 12
    frequency:    23.6338352533

- q-position: [   -0.2750000,    0.0750000,    0.0250000 ]
  distance_from_gamma:  0.089256153
  weight: 8    
  band:
  - # 1
    frequency:     3.3063109204
  - # 2
    frequency:     3.3979936128
  - # 3
    frequency:     5.7525280562
  - # 4
    frequency:     5.9980439151
  - # 5
    frequency:     7.0692645071
  - # 6
    frequency:     9.6813054017
  - # 7
    frequency:    21.8741557171
  - # 8
    frequency:    22.6086088977
  - # 9
    frequency:    22.8554435522
  - # 10
    frequency:    23.1076845866
  - # 11
    frequency:    23.5007611290
  - # 12
    frequency:    23.6428742069

- q-position: [   -0.2250000,    0.0750000,    0.0250000 ]
  distance_from_gamma:  0.071988605
  weight: 8    
  band:
  - # 1
    frequency:     2.7470544255
  - # 2
    frequency:     2.7770360006
  - # 3
    frequency:     4.9715807449
  - # 4
    frequency:     5.4195700542
  - # 5
    frequency:     6.4700028405
  - # 6
    frequency:     9.7686745949
  - # 7
    frequency:    22.0476964092
  - # 8
    frequency:    22.6811350980
  - # 9
    frequency:    22.9941556966
  - # 10
    frequency:    23.1829696882
  - # 11
    frequency:    23.4300861759
  - # 12
    frequency:    23.6498844195

- q-position: [   -0.1750000,    0.0750000,    0.0250000 ]
  distance_from_gamma:  0.055255655
  weight: 8    
  band:
  - # 1
    frequency:     2.1474217786
  - # 2
    frequency:     2.1537906717
  - # 3
    frequency:     3.9030564543
  - # 4
    frequency:     5.1056094365
  - # 5
    frequency:     5.8461630390
  - # 6
    frequency:     9.8548252797
  - # 7
    frequency:    22.2345382599
  - # 8
    frequency:    22.7286541648
  - # 9
    frequency:    23.1256062620
  - # 10
    frequency:    23.2432947236
  - # 11
    frequency:    23.3423901115
  - # 12
    frequency:    23.6516469784

- q-position: [   -0.1250000,    0.0750000,    0.0250000 ]
  distance_from_gamma:  0.039738461
  weight: 8    
  band:
  - # 1
    frequency:     1.5515488335
  - # 2
    frequency:     1.5631594240
  - # 3
    frequency:     2.8559263974
  - # 4
    frequency:     4.8567835270
  - # 5
    frequency:     5.3014104903
  - # 6
    frequency:     9.9220967444
  - # 7
    frequency:    22.4145284709
  - # 8
    frequency:    22.7604288256
  - # 9
    frequency:    23.2153416655
  - # 10
    frequency:    23.2357685885
  - # 11
    frequency:    23.3074342729
  - # 12
    frequency:    23.6472808356

- q-position: [   -0.0750000,    0.0750000,    0.0250000 ]
  distance_from_gamma:  0.027572324
  weight: 4    
  band:
  - # 1
    frequency:     1.0734578086
  - # 2
    frequency:     1.0949541517
  - # 3
    frequency:     2.0019000672
  - # 4
    frequency:     4.7091423805
  - # 5
    frequency:     4.9428760727
  - # 6
    frequency:     9.9617024337
  - # 7
    frequency:    22.5548501020
  - # 8
    frequency:    22.7776956832
  - # 9
    frequency:    23.1297335676
  - # 10
    frequency:    23.2945999358
  - # 11
    frequency:    23.3319149212
  - # 12
    frequency:    23.6402765881

- q-position: [    0.1250000,    0.1250000,    0.0250000 ]
  distance_from_gamma:  0.078517858
  weight: 4    
  band:
  - # 1
    frequency:     3.0137307521
  - # 2
    frequency:     3.0210815602
  - # 3
    frequency:     5.3375324983
  - # 4
    frequency:     5.5835706440
  - # 5
    frequency:     6.6836423902
  - # 6
    frequency:     9.7335080815
  - # 7
    frequency:    21.9761921769
  - # 8
    frequency:    22.6442355278
  - # 9
    frequency:    22.9621980967
  - # 10
    frequency:    23.1556657498
  - # 11
    frequency:    23.4543029683
  - # 12
    frequency:    23.6460417424

- q-position: [    0.1750000,    0.1250000,    0.0250000 ]
  distance_from_gamma:  0.094601034
  weight: 8    
  band:
  - # 1
    frequency:     3.5755988829
  - # 2
    frequency:     3.5861703959
  - # 3
    frequency:     5.9249266690
  - # 4
    frequency:     6.2447206537
  - # 5
    frequency:     7.1861389842
  - # 6
    frequency:     9.6556532607
  - # 7
    frequency:    21.8172505327
  - # 8
    frequency:    22.5406660382
  - # 9
    frequency:    22.8686272049
  - # 10
    frequency:    23.0883367368
  - # 11
    frequency:    23.5078507195
  - # 12
    frequency:    23.6355141593

- q-position: [    0.2250000,    0.1250000,    0.0250000 ]
  distance_from_gamma:  0.111304929
  weight: 8    
  band:
  - # 1
    frequency:     4.0764512095
  - # 2
    frequency:     4.1494905965
  - # 3
    frequency:     6.2735148462
  - # 4
    frequency:     7.0765489905
  - # 5
    frequency:     7.5771387261
  - # 6
    frequency:     9.6092538595
  - # 7
    frequency:    21.6820623503
  - # 8
    frequency:    22.3921231194
  - # 9
    frequency:    22.7985744680
  - # 10
    frequency:    23.0181408071
  - # 11
    frequency:    23.5451302446
  - # 12
    frequency:    23.6228406010

- q-position: [    0.2750000,    0.1250000,    0.0250000 ]
  distance_from_gamma:  0.128387493
  weight: 8    
  band:
  - # 1
    frequency:     4.4950642390
  - # 2
    frequency:     4.6828790099
  - # 3
    frequency:     6.5756294801
  - # 4
    frequency:     7.7618809665
  - # 5
    frequency:     7.8442299900
  - # 6
    frequency:     9.6202706207
  - # 7
    frequency:    21.5864783815
  - # 8
    frequency:    22.2137967165
  - # 9
    frequency:    22.7508948224
  - # 10
    frequency:    22.9506326646
  - # 11
    frequency:    23.5661575488
  - # 12
    frequency:    23.6119558205

- q-position: [    0.3250000,    0.1250000,    0.0250000 ]
  distance_from_gamma:  0.145715612
  weight: 8    
  band:
  - # 1
    frequency:     4.8147438859
  - # 2
    frequency:     5.1566210064
  - # 3
    frequency:     6.8047329862
  - # 4
    frequency:     7.8214658347
  - # 5
    frequency:     8.4364687389
  - # 6
    frequency:     9.6698631391
  - # 7
    frequency:    21.5427112209
  - # 8
    frequency:    22.0271371365
  - # 9
    frequency:    22.7200294089
  - # 10
    frequency:    22.8921965475
  - # 11
    frequency:    23.5732455820
  - # 12
    frequency:    23.6060959051

- q-position: [    0.3750000,    0.1250000,    0.0250000 ]
  distance_from_gamma:  0.163211092
  weight: 8    
  band:
  - # 1
    frequency:     5.0236814273
  - # 2
    frequency:     5.5243854785
  - # 3
    frequency:     6.9402896029
  - # 4
    frequency:     7.7686667781
  - # 5
    frequency:     8.8885656593
  - # 6
    frequency:     9.6989857936
  - # 7
    frequency:    21.5564536809
  - # 8
    frequency:    21.8531983000
  - # 9
    frequency:    22.7026613087
  - # 10
    frequency:    22.8496614567
  - # 11
    frequency:    23.5730114751
  - # 12
    frequency:    23.6040496411

- q-position: [    0.4250000,    0.1250000,    0.0250000 ]
  distance_from_gamma:  0.180825361
  weight: 8    
  band:
  - # 1
    frequency:     5.1145293908
  - # 2
    frequency:     5.7104146229
  - # 3
    frequency:     6.9864937132
  - # 4
    frequency:     7.7239696690
  - # 5
    frequency:     9.1190226570
  - # 6
    frequency:     9.6895225141
  - # 7
    frequency:    21.6139073278
  - # 8
    frequency:    21.7237521710
  - # 9
    frequency:    22.6960708529
  - # 10
    frequency:    22.8297054692
  - # 11
    frequency:    23.5720270825
  - # 12
    frequency:    23.6032778238

- q-position: [   -0.5250000,    0.1250000,    0.0250000 ]
  distance_from_gamma:  0.172005653
  weight: 8    
  band:
  - # 1
    frequency:     5.0841599752
  - # 2
    frequency:     5.6457495559
  - # 3
    frequency:     6.9726250956
  - # 4
    frequency:     7.7403370301
  - # 5
    frequency:     9.0376771021
  - # 6
    frequency:     9.6962392109
  - # 7
    frequency:    21.5830222884
  - # 8
    frequency:    21.7788607114
  - # 9
    frequency:    22.6981923131
  - # 10
    frequency:    22.8364950267
  - # 11
    frequency:    23.5723978407
  - # 12
    frequency:    23.6035458259

- q-position: [   -0.4750000,    0.1250000,    0.0250000 ]
  distance_from_gamma:  0.154445974
  weight: 8    
  band:
  - # 1
    frequency:     4.9336148677
  - # 2
    frequency:     5.3577566356
  - # 3
    frequency:     6.8848757945
  - # 4
    frequency:     7.7999290002
  - # 5
    frequency:     8.6851755396
  - # 6
    frequency:     9.6901708548
  - # 7
    frequency:    21.5424238209
  - # 8
    frequency:    21.9372047316
  - # 9
    frequency:    22.7098226832
  - # 10
    frequency:    22.8685064683
  - # 11
    frequency:    23.5735238920
  - # 12
    frequency:    23.6048203488

- q-position: [   -0.4250000,    0.1250000,    0.0250000 ]
  distance_from_gamma:  0.137026650
  weight: 8    
  band:
  - # 1
    frequency:     4.6681186224
  - # 2
    frequency:     4.9295195855
  - # 3
    frequency:     6.7008537221
  - # 4
    frequency:     7.8185641075
  - # 5
    frequency:     8.1491425052
  - # 6
    frequency:     9.6437638417
  - # 7
    frequency:    21.5575624438
  - # 8
    frequency:    22.1201995300
  - # 9
    frequency:    22.7336068185
  - # 10
    frequency:    22.9198607201
  - # 11
    frequency:    23.5711412815
  - # 12
    frequency:    23.6083426003

- q-position: [   -0.3750000,    0.1250000,    0.0250000 ]
  distance_from_gamma:  0.119808917