phonopy:
  version: "2.26.6"
  frequency_unit_conversion_factor: 15.633302
  symmetry_tolerance: 1.00000e-05
  configuration:
    dim: "2 2 2"
    force_constants: "READ"
    primitive_axis: "AUTO"
    band: "0.0 0.0 0.0  0.333 0.333 0.0  0.5 0.0 0.0  0.0 0.0 0.0  0.0 0.0 0.5"
    mp: "20 20 20"
    cell_filename: "gan-POSCAR"

physical_unit:
  atomic_mass: "AMU"
  length: "angstrom"
  force_constants: "eV/angstrom^2"

space_group:
  type: "P6_3mc"
  number: 186
  Hall_symbol: "P 6c -2c"

primitive_matrix:
- [  1.000000000000000,  0.000000000000000,  0.000000000000000 ]
- [  0.000000000000000,  1.000000000000000,  0.000000000000000 ]
- [  0.000000000000000,  0.000000000000000,  1.000000000000000 ]

supercell_matrix:
- [   2,   0,   0 ]
- [   0,   2,   0 ]
- [   0,   0,   2 ]

primitive_cell:
  lattice:
  - [     3.190000057200000,     0.000000000000000,     0.000000000000000 ] # a
  - [    -1.595000028600000,     2.762621076000000,     0.000000000000000 ] # b
  - [     0.000000000000000,     0.000000000000000,     5.189000129699999 ] # c
  points:
  - symbol: Ga # 1
    coordinates: [  0.666666690000000,  0.333333340000000,  0.000000000000000 ]
    mass: 69.723000
  - symbol: Ga # 2
    coordinates: [  0.333333310000000,  0.666666630000000,  0.500000000000000 ]
    mass: 69.723000
  - symbol: N  # 3
    coordinates: [  0.666666690000000,  0.333333340000000,  0.375000000000000 ]
    mass: 14.006700
  - symbol: N  # 4
    coordinates: [  0.333333310000000,  0.666666630000000,  0.875000000000000 ]
    mass: 14.006700
  reciprocal_lattice: # without 2pi
  - [     0.313479618203438,     0.180987542715757,     0.000000000000000 ] # a*
  - [     0.000000000000000,     0.361975085431514,     0.000000000000000 ] # b*
  - [     0.000000000000000,     0.000000000000000,     0.192715354597190 ] # c*

unit_cell:
  lattice:
  - [     3.190000057200000,     0.000000000000000,     0.000000000000000 ] # a
  - [    -1.595000028600000,     2.762621076000000,     0.000000000000000 ] # b
  - [     0.000000000000000,     0.000000000000000,     5.189000129700000 ] # c
  points:
  - symbol: Ga # 1
    coordinates: [  0.666666690000000,  0.333333340000000,  0.000000000000000 ]
    mass: 69.723000
    reduced_to: 1
  - symbol: Ga # 2
    coordinates: [  0.333333310000000,  0.666666630000000,  0.500000000000000 ]
    mass: 69.723000
    reduced_to: 2
  - symbol: N  # 3
    coordinates: [  0.666666690000000,  0.333333340000000,  0.375000000000000 ]
    mass: 14.006700
    reduced_to: 3
  - symbol: N  # 4
    coordinates: [  0.333333310000000,  0.666666630000000,  0.875000000000000 ]
    mass: 14.006700
    reduced_to: 4

supercell:
  lattice:
  - [     6.380000114400000,     0.000000000000000,     0.000000000000000 ] # a
  - [    -3.190000057200000,     5.525242152000000,     0.000000000000000 ] # b
  - [     0.000000000000000,     0.000000000000000,    10.378000259400000 ] # c
  points:
  - symbol: Ga # 1
    coordinates: [  0.333333345000000,  0.166666670000000,  0.000000000000000 ]
    mass: 69.723000
    reduced_to: 1
  - symbol: Ga # 2
    coordinates: [  0.833333345000000,  0.166666670000000,  0.000000000000000 ]
    mass: 69.723000
    reduced_to: 1
  - symbol: Ga # 3
    coordinates: [  0.333333345000000,  0.666666670000000,  0.000000000000000 ]
    mass: 69.723000
    reduced_to: 1
  - symbol: Ga # 4
    coordinates: [  0.833333345000000,  0.666666670000000,  0.000000000000000 ]
    mass: 69.723000
    reduced_to: 1
  - symbol: Ga # 5
    coordinates: [  0.333333345000000,  0.166666670000000,  0.500000000000000 ]
    mass: 69.723000
    reduced_to: 1
  - symbol: Ga # 6
    coordinates: [  0.833333345000000,  0.166666670000000,  0.500000000000000 ]
    mass: 69.723000
    reduced_to: 1
  - symbol: Ga # 7
    coordinates: [  0.333333345000000,  0.666666670000000,  0.500000000000000 ]
    mass: 69.723000
    reduced_to: 1
  - symbol: Ga # 8
    coordinates: [  0.833333345000000,  0.666666670000000,  0.500000000000000 ]
    mass: 69.723000
    reduced_to: 1
  - symbol: Ga # 9
    coordinates: [  0.166666655000000,  0.333333315000000,  0.250000000000000 ]
    mass: 69.723000
    reduced_to: 9
  - symbol: Ga # 10
    coordinates: [  0.666666655000000,  0.333333315000000,  0.250000000000000 ]
    mass: 69.723000
    reduced_to: 9
  - symbol: Ga # 11
    coordinates: [  0.166666655000000,  0.833333315000000,  0.250000000000000 ]
    mass: 69.723000
    reduced_to: 9
  - symbol: Ga # 12
    coordinates: [  0.666666655000000,  0.833333315000000,  0.250000000000000 ]
    mass: 69.723000
    reduced_to: 9
  - symbol: Ga # 13
    coordinates: [  0.166666655000000,  0.333333315000000,  0.750000000000000 ]
    mass: 69.723000
    reduced_to: 9
  - symbol: Ga # 14
    coordinates: [  0.666666655000000,  0.333333315000000,  0.750000000000000 ]
    mass: 69.723000
    reduced_to: 9
  - symbol: Ga # 15
    coordinates: [  0.166666655000000,  0.833333315000000,  0.750000000000000 ]
    mass: 69.723000
    reduced_to: 9
  - symbol: Ga # 16
    coordinates: [  0.666666655000000,  0.833333315000000,  0.750000000000000 ]
    mass: 69.723000
    reduced_to: 9
  - symbol: N  # 17
    coordinates: [  0.333333345000000,  0.166666670000000,  0.187500000000000 ]
    mass: 14.006700
    reduced_to: 17
  - symbol: N  # 18
    coordinates: [  0.833333345000000,  0.166666670000000,  0.187500000000000 ]
    mass: 14.006700
    reduced_to: 17
  - symbol: N  # 19
    coordinates: [  0.333333345000000,  0.666666670000000,  0.187500000000000 ]
    mass: 14.006700
    reduced_to: 17
  - symbol: N  # 20
    coordinates: [  0.833333345000000,  0.666666670000000,  0.187500000000000 ]
    mass: 14.006700
    reduced_to: 17
  - symbol: N  # 21
    coordinates: [  0.333333345000000,  0.166666670000000,  0.687500000000000 ]
    mass: 14.006700
    reduced_to: 17
  - symbol: N  # 22
    coordinates: [  0.833333345000000,  0.166666670000000,  0.687500000000000 ]
    mass: 14.006700
    reduced_to: 17
  - symbol: N  # 23
    coordinates: [  0.333333345000000,  0.666666670000000,  0.687500000000000 ]
    mass: 14.006700
    reduced_to: 17
  - symbol: N  # 24
    coordinates: [  0.833333345000000,  0.666666670000000,  0.687500000000000 ]
    mass: 14.006700
    reduced_to: 17
  - symbol: N  # 25
    coordinates: [  0.166666655000000,  0.333333315000000,  0.437500000000000 ]
    mass: 14.006700
    reduced_to: 25
  - symbol: N  # 26
    coordinates: [  0.666666655000000,  0.333333315000000,  0.437500000000000 ]
    mass: 14.006700
    reduced_to: 25
  - symbol: N  # 27
    coordinates: [  0.166666655000000,  0.833333315000000,  0.437500000000000 ]
    mass: 14.006700
    reduced_to: 25
  - symbol: N  # 28
    coordinates: [  0.666666655000000,  0.833333315000000,  0.437500000000000 ]
    mass: 14.006700
    reduced_to: 25
  - symbol: N  # 29
    coordinates: [  0.166666655000000,  0.333333315000000,  0.937500000000000 ]
    mass: 14.006700
    reduced_to: 25
  - symbol: N  # 30
    coordinates: [  0.666666655000000,  0.333333315000000,  0.937500000000000 ]
    mass: 14.006700
    reduced_to: 25
  - symbol: N  # 31
    coordinates: [  0.166666655000000,  0.833333315000000,  0.937500000000000 ]
    mass: 14.006700
    reduced_to: 25
  - symbol: N  # 32
    coordinates: [  0.666666655000000,  0.833333315000000,  0.937500000000000 ]
    mass: 14.006700
    reduced_to: 25
