phonopy:
  version: "2.26.6"
  calculator: lammps
  frequency_unit_conversion_factor: 15.633302
  symmetry_tolerance: 1.00000e-05
  configuration:
    cell_filename: "gan.data"
    create_displacements: ".true."
    dim: "2 2 2"
    calculator: "lammps"

physical_unit:
  atomic_mass: "AMU"
  length: "angstrom"

space_group:
  type: "P6_3mc"
  number: 186
  Hall_symbol: "P 6c -2c"

supercell_matrix:
- [   2,   0,   0 ]
- [   0,   2,   0 ]
- [   0,   0,   2 ]

primitive_cell:
  lattice:
  - [     3.190000057200000,     0.000000000000000,     0.000000000000000 ] # a
  - [    -1.595000028600000,     2.762621076000000,     0.000000000000000 ] # b
  - [     0.000000000000000,     0.000000000000000,     5.189000129700000 ] # c
  points:
  - symbol: H  # 1
    coordinates: [  0.666666689996837,  0.333333339993675,  0.000000000000000 ]
    mass: 1.007940
  - symbol: H  # 2
    coordinates: [  0.333333309983621,  0.666666629998591,  0.500000000009636 ]
    mass: 1.007940
  - symbol: He # 3
    coordinates: [  0.666666689996837,  0.333333339993675,  0.374999999992773 ]
    mass: 4.002602
  - symbol: He # 4
    coordinates: [  0.333333309983621,  0.666666629998591,  0.875000000002409 ]
    mass: 4.002602
  reciprocal_lattice: # without 2pi
  - [     0.313479618203438,     0.180987542715757,     0.000000000000000 ] # a*
  - [     0.000000000000000,     0.361975085431514,     0.000000000000000 ] # b*
  - [     0.000000000000000,     0.000000000000000,     0.192715354597190 ] # c*

unit_cell:
  lattice:
  - [     3.190000057200000,     0.000000000000000,     0.000000000000000 ] # a
  - [    -1.595000028600000,     2.762621076000000,     0.000000000000000 ] # b
  - [     0.000000000000000,     0.000000000000000,     5.189000129700000 ] # c
  points:
  - symbol: H  # 1
    coordinates: [  0.666666689996837,  0.333333339993675,  0.000000000000000 ]
    mass: 1.007940
    reduced_to: 1
  - symbol: H  # 2
    coordinates: [  0.333333309983621,  0.666666629998591,  0.500000000009636 ]
    mass: 1.007940
    reduced_to: 2
  - symbol: He # 3
    coordinates: [  0.666666689996837,  0.333333339993675,  0.374999999992773 ]
    mass: 4.002602
    reduced_to: 3
  - symbol: He # 4
    coordinates: [  0.333333309983621,  0.666666629998591,  0.875000000002409 ]
    mass: 4.002602
    reduced_to: 4

supercell:
  lattice:
  - [     6.380000114400000,     0.000000000000000,     0.000000000000000 ] # a
  - [    -3.190000057200000,     5.525242152000000,     0.000000000000000 ] # b
  - [     0.000000000000000,     0.000000000000000,    10.378000259400000 ] # c
  points:
  - symbol: H  # 1
    coordinates: [  0.333333344998419,  0.166666669996837,  0.000000000000000 ]
    mass: 1.007940
    reduced_to: 1
  - symbol: H  # 2
    coordinates: [  0.833333344998419,  0.166666669996837,  0.000000000000000 ]
    mass: 1.007940
    reduced_to: 1
  - symbol: H  # 3
    coordinates: [  0.333333344998419,  0.666666669996837,  0.000000000000000 ]
    mass: 1.007940
    reduced_to: 1
  - symbol: H  # 4
    coordinates: [  0.833333344998419,  0.666666669996837,  0.000000000000000 ]
    mass: 1.007940
    reduced_to: 1
  - symbol: H  # 5
    coordinates: [  0.333333344998419,  0.166666669996837,  0.500000000000000 ]
    mass: 1.007940
    reduced_to: 1
  - symbol: H  # 6
    coordinates: [  0.833333344998419,  0.166666669996837,  0.500000000000000 ]
    mass: 1.007940
    reduced_to: 1
  - symbol: H  # 7
    coordinates: [  0.333333344998419,  0.666666669996837,  0.500000000000000 ]
    mass: 1.007940
    reduced_to: 1
  - symbol: H  # 8
    coordinates: [  0.833333344998419,  0.666666669996837,  0.500000000000000 ]
    mass: 1.007940
    reduced_to: 1
  - symbol: H  # 9
    coordinates: [  0.166666654991811,  0.333333314999295,  0.250000000004818 ]
    mass: 1.007940
    reduced_to: 9
  - symbol: H  # 10
    coordinates: [  0.666666654991811,  0.333333314999295,  0.250000000004818 ]
    mass: 1.007940
    reduced_to: 9
  - symbol: H  # 11
    coordinates: [  0.166666654991811,  0.833333314999295,  0.250000000004818 ]
    mass: 1.007940
    reduced_to: 9
  - symbol: H  # 12
    coordinates: [  0.666666654991811,  0.833333314999295,  0.250000000004818 ]
    mass: 1.007940
    reduced_to: 9
  - symbol: H  # 13
    coordinates: [  0.166666654991811,  0.333333314999295,  0.750000000004818 ]
    mass: 1.007940
    reduced_to: 9
  - symbol: H  # 14
    coordinates: [  0.666666654991811,  0.333333314999295,  0.750000000004818 ]
    mass: 1.007940
    reduced_to: 9
  - symbol: H  # 15
    coordinates: [  0.166666654991811,  0.833333314999295,  0.750000000004818 ]
    mass: 1.007940
    reduced_to: 9
  - symbol: H  # 16
    coordinates: [  0.666666654991811,  0.833333314999295,  0.750000000004818 ]
    mass: 1.007940
    reduced_to: 9
  - symbol: He # 17
    coordinates: [  0.333333344998419,  0.166666669996837,  0.187499999996387 ]
    mass: 4.002602
    reduced_to: 17
  - symbol: He # 18
    coordinates: [  0.833333344998419,  0.166666669996837,  0.187499999996387 ]
    mass: 4.002602
    reduced_to: 17
  - symbol: He # 19
    coordinates: [  0.333333344998419,  0.666666669996837,  0.187499999996387 ]
    mass: 4.002602
    reduced_to: 17
  - symbol: He # 20
    coordinates: [  0.833333344998419,  0.666666669996837,  0.187499999996387 ]
    mass: 4.002602
    reduced_to: 17
  - symbol: He # 21
    coordinates: [  0.333333344998419,  0.166666669996837,  0.687499999996387 ]
    mass: 4.002602
    reduced_to: 17
  - symbol: He # 22
    coordinates: [  0.833333344998419,  0.166666669996837,  0.687499999996387 ]
    mass: 4.002602
    reduced_to: 17
  - symbol: He # 23
    coordinates: [  0.333333344998419,  0.666666669996837,  0.687499999996387 ]
    mass: 4.002602
    reduced_to: 17
  - symbol: He # 24
    coordinates: [  0.833333344998419,  0.666666669996837,  0.687499999996387 ]
    mass: 4.002602
    reduced_to: 17
  - symbol: He # 25
    coordinates: [  0.166666654991811,  0.333333314999295,  0.437500000001204 ]
    mass: 4.002602
    reduced_to: 25
  - symbol: He # 26
    coordinates: [  0.666666654991811,  0.333333314999295,  0.437500000001204 ]
    mass: 4.002602
    reduced_to: 25
  - symbol: He # 27
    coordinates: [  0.166666654991811,  0.833333314999295,  0.437500000001204 ]
    mass: 4.002602
    reduced_to: 25
  - symbol: He # 28
    coordinates: [  0.666666654991811,  0.833333314999295,  0.437500000001204 ]
    mass: 4.002602
    reduced_to: 25
  - symbol: He # 29
    coordinates: [  0.166666654991811,  0.333333314999295,  0.937500000001204 ]
    mass: 4.002602
    reduced_to: 25
  - symbol: He # 30
    coordinates: [  0.666666654991811,  0.333333314999295,  0.937500000001204 ]
    mass: 4.002602
    reduced_to: 25
  - symbol: He # 31
    coordinates: [  0.166666654991811,  0.833333314999295,  0.937500000001204 ]
    mass: 4.002602
    reduced_to: 25
  - symbol: He # 32
    coordinates: [  0.666666654991811,  0.833333314999295,  0.937500000001204 ]
    mass: 4.002602
    reduced_to: 25

displacements:
- atom:    1
  displacement:
    [   0.0052371265451679,  0.0000000000000000,  0.0085189497914883 ]
- atom:    1
  displacement:
    [  -0.0052371265451679,  0.0000000000000000, -0.0085189497914883 ]
- atom:   17
  displacement:
    [   0.0052371265451679,  0.0000000000000000,  0.0085189497914883 ]
- atom:   17
  displacement:
    [  -0.0052371265451679,  0.0000000000000000, -0.0085189497914883 ]
