#

32 atoms
2 atom types

0.0 6.3800001144 xlo xhi
0.0 5.525242151999999 ylo yhi
0.0 10.3780002594 zlo zhi

-3.1900000572000002 6.354692399612305e-16 0.0 xy xz yz


Atom Type Labels

1 H
2 He


Atoms

1 H 1.5950000923999996 0.9208737103999999 0.0
2 H 4.7850001496 0.9208737103999999 0.0
3 H 6.379999966120968e-08 3.683494786399999 0.0
4 H 3.1900001209999997 3.683494786399999 0.0
5 H 1.5950000923999998 0.9208737103999999 5.1890001297
6 H 4.7850001496 0.9208737103999999 5.1890001297
7 H 6.37999999789443e-08 3.683494786399999 5.1890001297
8 H 3.190000121 3.683494786399999 5.1890001297
9 H -1.6000000220262538e-08 1.8417472826999999 2.5945000649
10 H 3.190000041199999 1.8417472826999999 2.5945000649
11 H -1.5950000446000003 4.6043683586999995 2.5945000649
12 H 1.595000012599999 4.6043683586999995 2.5945000649
13 H -1.5999999902527916e-08 1.8417472826999999 7.7835001946
14 H 3.1900000411999994 1.8417472826999999 7.7835001946
15 H -1.5950000446 4.6043683586999995 7.7835001946
16 H 1.5950000125999992 4.6043683586999995 7.7835001946
17 He 1.5950000923999998 0.9208737103999999 1.9458750486
18 He 4.7850001496 0.9208737103999999 1.9458750486
19 He 6.379999978036016e-08 3.683494786399999 1.9458750486
20 He 3.1900001209999997 3.683494786399999 1.9458750486
21 He 1.5950000924 0.9208737103999999 7.1348751783
22 He 4.7850001496 0.9208737103999999 7.1348751783
23 He 6.380000009809478e-08 3.683494786399999 7.1348751783
24 He 3.190000121 3.683494786399999 7.1348751783
25 He -1.6000000101112054e-08 1.8417472826999999 4.5403751135
26 He 3.1900000411999994 1.8417472826999999 4.5403751135
27 He -1.5950000446000003 4.6043683586999995 4.5403751135
28 He 1.595000012599999 4.6043683586999995 4.5403751135
29 He -1.5999999783377436e-08 1.8417472826999999 9.7293752432
30 He 3.1900000411999994 1.8417472826999999 9.7293752432
31 He -1.5950000445999999 4.6043683586999995 9.7293752432
32 He 1.5950000125999995 4.6043683586999995 9.7293752432